ZIF-8(H)

204 atoms
240 bonds
432 angles
768 dihedrals
120 impropers

6 atom types
6 bond types
9 angle types
13 dihedral types
3 improper types

0.00000000 16.85090000 xlo xhi
0.00000000 16.85090000 ylo yhi
0.00000000 16.85090000 zlo zhi
-0.00000000 0.00000000 0.00000000 xy xz yz

Masses

1	65.38	# Zn
2	1.0079	# H1
3	1.0079	# H2
4	12.0107	# C1
5	12.0107	# C2
6	14.0067	# N

Atoms

         1          1          1              0.52120         0.0000000000         8.4254500000        12.6381750000
         2          2          5             -0.05190         1.9237749028         9.2108263043        14.9271250972
         3          2          4             -0.15040         2.8739751987         7.2412202821        14.9620803123
         4          2          4             -0.15040         1.8888296552         7.2412369562        13.9768898661
         5          2          6             -0.15320         2.8888753446         8.4954540386        15.5590941396
         6          2          6             -0.15320         1.2918436519         8.4954628485        13.9620118317
         7          2          2              0.14200         3.5697726346         6.4536277583        15.2755782634
         8          2          2              0.14200         1.5753500780         6.4536615261        13.2810648147
         9          2          3              0.11450         1.6931718947        10.2593302448        15.1577353455
        10          3          5             -0.05190        17.6362763043         6.5016750972        10.3492249028
        11          3          4             -0.15040        15.6668470578         5.5510945593        10.3146498229
        12          3          4             -0.15040        15.6669576782         6.5360380256        11.3000422897
        13          3          6             -0.15320        16.9205977112         5.5372335611         9.7165971397
        14          3          6             -0.15320        16.9207716782         7.1339100036        11.3140345981
        15          3          2              0.14200        14.8724419727         4.8699508439         9.9865022642
        16          3          2              0.14200        14.8726659377         6.8639642890        11.9814247097
        17          3          3              0.11450        18.6737411629         6.7560230101        10.0948764141
        18          4          1              0.52120        12.6381750000         8.4254500000        -0.0000000000
        19          5          5             -0.05190        14.9271250972         9.2108263043         1.9237749028
        20          5          4             -0.15040        14.9615929298         7.2414469041         2.8744626005
        21          5          4             -0.15040        13.9764148443         7.2414578307         1.8893046958
        22          5          6             -0.15320        15.5595791518         8.4952285187         2.8883903131
        23          5          6             -0.15320        13.9624892237         8.4952408719         1.2913662409
        24          5          2              0.14200        15.2896324273         6.4470928865         3.5557179150
        25          5          2              0.14200        13.2951439955         6.4471150219         1.5612703403
        26          5          3              0.11450        15.1814764483        10.2482911631         1.6694298531
        27          6          5             -0.05190        14.9271250972         7.6400736957        14.9271250972
        28          6          4             -0.15040        14.9619267847         9.6096083041        13.9767711523
        29          6          4             -0.15040        13.9760813424         9.6092869572        14.9612611817
        30          6          6             -0.15320        15.5601198966         8.3559230946        13.9630512236
        31          6          6             -0.15320        13.9619481259         8.3554075186        15.5589925920
        32          6          2              0.14200        15.2903026683        10.4041213322        13.2958634140
        33          6          2              0.14200        13.2944631758        10.4034707521        15.2889588783
        34          6          3              0.11450        15.1814675334         6.6026088365        15.1814790600
        35          7          5             -0.05190        10.3492249028         6.5016750972        17.6362763043
        36          7          4             -0.15040        10.3145982432         5.5511461154        15.6668230804
        37          7          4             -0.15040        11.2991312145         6.5369486831        15.6665341541
        38          7          6             -0.15320         9.7177889642         5.5360422829        16.9211517450
        39          7          6             -0.15320        11.3138054285         7.1341390681        16.9206651459
        40          7          2              0.14200        10.0014424562         4.8550175012        14.8793870981
        41          7          2              0.14200        11.9946248500         6.8507702003        14.8788021795
        42          7          3              0.11450        10.1186234296         6.7322868814        18.6847802446
        43          8          1              0.52120         0.0000000000        12.6381750000         8.4254500000
        44          9          5             -0.05190         1.9237749028        14.9271250972         9.2108263043
        45          9          4             -0.15040         2.8745262257        14.9615292282         7.2414765056
        46          9          4             -0.15040         1.8892410001        13.9764784786         7.2414282284
        47          9          6             -0.15320         2.8884935495        15.5594759743         8.4952765067
        48          9          6             -0.15320         1.2912630751        13.9625924686         8.4951928847
        49          9          2              0.14200         3.5558478015        15.2895045402         6.4471528148
        50          9          2              0.14200         1.5611424662        13.2952738994         6.4470550926
        51          9          3              0.11450         1.6694315537        15.1814781479        10.2482911633
        52         10          5             -0.05190        17.6362763043        10.3492249028         6.5016750972
        53         10          4             -0.15040        15.6667447215        10.3144297210         5.5513146437
        54         10          4             -0.15040        15.6666125150        11.2992999233         6.5367803331
        55         10          6             -0.15320        16.9210247147         9.7175155256         5.5363152481
        56         10          6             -0.15320        16.9207921743        11.3140786805         7.1338659247
        57         10          2              0.14200        14.8792284608        10.0010984327         4.8553558349
        58         10          2              0.14200        14.8789608207        11.9949635490         6.8504265252
        59         10          3              0.11450        18.6847802451        10.1186189302         6.7322823800
        60         11          1              0.52120         8.4254500000        12.6381750000        -0.0000000000
        61         12          5             -0.05190         9.2108263043        14.9271250972         1.9237749028
        62         12          4             -0.15040         7.2412516125        14.9620129638         2.8740426136
        63         12          4             -0.15040         7.2412056250        13.9769572892         1.8887623116
        64         12          6             -0.15320         8.4955048293        15.5589848619         2.8889845365
        65         12          6             -0.15320         8.4954120586        13.9621210347         1.2917343887
        66         12          2              0.14200         6.4536911867        15.2754407762         3.5699079762
        67         12          2              0.14200         6.4535980966        13.2812001721         1.5752126016
        68         12          3              0.11450        10.2593302450        15.1577335458         1.6931700957
        69         13          5             -0.05190         7.6400736957        14.9271250972        14.9271250972
        70         13          4             -0.15040         9.6094217656        13.9763700586        14.9615255075
        71         13          4             -0.15040         9.6094735004        14.9616627197        13.9764821953
        72         13          6             -0.15320         8.3556206906        13.9624004216        15.5594699479
        73         13          6             -0.15320         8.3557099179        15.5596429497        13.9625984989
        74         13          2              0.14200        10.4037436852        13.2950446132        15.2894970705
        75         13          2              0.14200        10.4038484074        15.2897650015        13.2952814868
        76         13          3              0.11450         6.6026088367        15.1814683470        15.1814782471
        77         14          1              0.52120         8.4254500000         0.0000000000        12.6381750000
        78         15          5             -0.05190         9.2108263043         1.9237749028        14.9271250972
        79         15          4             -0.15040         7.2412947215         1.8889797210        13.9767646437
        80         15          4             -0.15040         7.2411625150         2.8738499233        14.9622303331
        81         15          6             -0.15320         8.4955747147         1.2920655256        13.9617652481
        82         15          6             -0.15320         8.4953421743         2.8886286805        15.5593159247
        83         15          2              0.14200         6.4537784608         1.5756484327        13.2808058349
        84         15          2              0.14200         6.4535108207         3.5695135490        15.2758765252
        85         15          3              0.11450        10.2593302451         1.6931689302        15.1577323800
        86         16          5             -0.05190         6.5016750972        17.6362763043        10.3492249028
        87         16          4             -0.15040         5.5514147536        15.6666981885        10.3143296753
        88         16          4             -0.15040         6.5366803291        15.6666590491        11.2994000798
        89         16          6             -0.15320         5.5364773960        16.9209492785         9.7173531946
        90         16          6             -0.15320         7.1337036709        16.9208676093        11.3142409007
        91         16          2              0.14200         4.8555568140        14.8791342548        10.0008941971
        92         16          2              0.14200         6.8502223749        14.8790550287        11.9951646218
        93         16          3              0.11450         6.7322797077        18.6847802450        10.1186162576
        94         17          1              0.52120        12.6381750000         0.0000000000         8.4254500000
        95         18          5             -0.05190        14.9271250972        14.9271250972         7.6400736957
        96         18          4             -0.15040        13.9761090774        14.9612640175         9.6093002993
        97         18          4             -0.15040        14.9619239904        13.9767434093         9.6095949699
        98         18          6             -0.15320        13.9619769612        15.5590464119         8.3554237773
        99         18          6             -0.15320        15.5600661206        13.9630223109         8.3559068281
       100         18          2              0.14200        13.2945118345        15.2889721010        10.4034977754
       101         18          2              0.14200        15.2902895194        13.2958147291        10.4040943200
       102         18          3              0.11450        15.1814613663        15.1814852188         6.6026088346
       103         19          5             -0.05190        14.9271250972         1.9237749028         9.2108263043
       104         19          4             -0.15040        14.9621263684         2.8739290855         7.2411988542
       105         19          4             -0.15040        13.9768437589         1.8888757197         7.2412583846
       106         19          6             -0.15320        15.5591688688         2.8888006550         8.4954193011
       107         19          6             -0.15320        13.9619371535         1.2919183902         8.4954975855
       108         19          2              0.14200        15.2756722839         3.5696800578         6.4535843774
       109         19          2              0.14200        13.2809722511         1.5754441146         6.4537049077
       110         19          3              0.11450        15.1577365766         1.6931731250        10.2593302447
       111         20          1              0.52120         8.4254500000         0.0000000000         4.2127250000
       112         21          5             -0.05190         6.5016750972        -0.7853763043         6.5016750972
       113         21          4             -0.15040         5.5509698304         1.1839949223         6.5361253414
       114         21          4             -0.15040         6.5361628928         1.1840003431         5.5509824141
       115         21          6             -0.15320         5.5370311797        -0.0697917692         7.1341006639
       116         21          6             -0.15320         7.1341122467        -0.0697776217         5.5370677302
       117         21          2              0.14200         4.8696962189         1.9783405661         6.8641471169
       118         21          2              0.14200         6.8642149702         1.9783515258         4.8697298628
       119         21          3              0.11450         6.7560196773        -1.8228411631         6.7560269176
       120         22          1              0.52120         8.4254500000         4.2127250000        -0.0000000000
       121         23          5             -0.05190         6.5016750972         6.5016750972        -0.7853763043
       122         23          4             -0.15040         6.5365666804         5.5514111062         1.1842001163
       123         23          4             -0.15040         5.5515035685         6.5366839726         1.1842426461
       124         23          6             -0.15320         7.1335408924         5.5364714884        -0.0700520267
       125         23          6             -0.15320         5.5366650083         7.1337095825        -0.0699648612
       126         23          2              0.14200         6.8499983634         4.8555494916         1.9717623133
       127         23          2              0.14200         4.8557427024         6.8502298129         1.9718484033
       128         23          3              0.11450         6.7322836451         6.7322798050        -1.8338802450
       129         24          5             -0.05190         7.6400736957         1.9237749028         1.9237749028
       130         24          4             -0.15040         9.6093786569         2.8746225818         1.8894672783
       131         24          4             -0.15040         9.6095166102         1.8891445372         2.8743251169
       132         24          6             -0.15320         8.3555508057         2.8886498939         1.2915803374
       133         24          6             -0.15320         8.3557798018         1.2911068376         2.8881511178
       134         24          2              0.14200        10.4036564114         3.5560445064         1.5615892064
       135         24          2              0.14200        10.4039356825         1.5609488101         3.5554292997
       136         24          3              0.11450         6.6026088361         1.6694341301         1.6694192782
       137         25          1              0.52120         4.2127250000         0.0000000000         8.4254500000
       138         26          5             -0.05190         1.9237749028         1.9237749028         7.6400736957
       139         26          4             -0.15040         1.8885089347         2.8736638748         9.6098243409
       140         26          4             -0.15040         2.8743212316         1.8891406504         9.6095184171
       141         26          6             -0.15320         1.2913016419         2.8883710927         8.3556804149
       142         26          6             -0.15320         2.8893920422         1.2923482325         8.3552027017
       143         26          2              0.14200         1.5746873522         3.5691476187        10.3975650323
       144         26          2              0.14200         3.5704597346         1.5759849443        10.3969456796
       145         26          3              0.11450         1.6931563435         1.6931801959         6.5915697574
       146         27          5             -0.05190        10.3492249028        17.6362763043         6.5016750972
       147         27          4             -0.15040        10.3148171236        15.6669248104         5.5509274176
       148         27          4             -0.15040        11.2998751658        15.6668799237         6.5362053525
       149         27          6             -0.15320         9.7168681167        16.9207237586         5.5369623622
       150         27          6             -0.15320        11.3137634443        16.9206456328         7.1341810173
       151         27          2              0.14200         9.9868381356        14.8725993829         4.8696096362
       152         27          2              0.14200        11.9810835403        14.8725085246         6.8643002113
       153         27          3              0.11450        10.0948719495        18.6737411633         6.7560185437
       154         28          1              0.52120         0.0000000000         8.4254500000         4.2127250000
       155         29          5             -0.05190        -0.7853763043         6.5016750972         6.5016750972
       156         29          4             -0.15040         1.1839717656         5.5509200586         6.5360755075
       157         29          4             -0.15040         1.1840235004         6.5362127197         5.5510321953
       158         29          6             -0.15320        -0.0698293094         5.5369504216         7.1340199479
       159         29          6             -0.15320        -0.0697400821         7.1341929497         5.5371484989
       160         29          2              0.14200         1.9782936852         4.8695946132         6.8640470705
       161         29          2              0.14200         1.9783984074         6.8643150015         4.8698314868
       162         29          3              0.11450        -1.8228411633         6.7560183470         6.7560282471
       163         30          1              0.52120         0.0000000000         4.2127250000         8.4254500000
       164         31          5             -0.05190         1.9237749028         7.6400736957         1.9237749028
       165         31          4             -0.15040         1.8888372568         9.6096715443         2.8739927871
       166         31          4             -0.15040         2.8739925453         9.6096712176         1.8888120854
       167         31          6             -0.15320         1.2918343676         8.3554327109         2.8889038326
       168         31          6             -0.15320         2.8888596807         8.3554504017         1.2918151453
       169         31          2              0.14200         1.5753576027        10.3972556942         3.5698079450
       170         31          2              0.14200         3.5697998748        10.3972550216         1.5753142107
       171         31          3              0.11450         1.6931651240         6.5915697551         1.6931714254
       172         32          1              0.52120         4.2127250000         8.4254500000        -0.0000000000
       173         33          5             -0.05190        -0.7853763043        10.3492249028        10.3492249028
       174         33          4             -0.15040         1.1843649041        10.3139792051        11.2991341957
       175         33          4             -0.15040         1.1840778542        11.2997509387        10.3145703509
       176         33          6             -0.15320        -0.0697848835         9.7167845321        11.3138540066
       177         33          6             -0.15320        -0.0702320001        11.3148091745         9.7177652972
       178         33          2              0.14200         1.9720959273        10.0001787333        11.9946384154
       179         33          2              0.14200         1.9715147848        11.9958689955        10.0013935050
       180         33          3              0.11450        -1.8338802428        10.1186068859        10.1186296544
       181         34          5             -0.05190        10.3492249028        10.3492249028        -0.7853763043
       182         34          4             -0.15040        11.2998665377        10.3147109635         1.1840245238
       183         34          4             -0.15040        10.3148008096        11.2999812137         1.1839707408
       184         34          6             -0.15320        11.3137655731         9.7166961691        -0.0697437811
       185         34          6             -0.15320         9.7168909299        11.3139355041        -0.0698256090
       186         34          2              0.14200        11.9810738811         9.9866250093         1.9784004944
       187         34          2              0.14200         9.9868129176        11.9813000280         1.9782915963
       188         34          3              0.11450        10.0948786222        10.0948747821        -1.8228411630
       189         35          5             -0.05190        10.3492249028        -0.7853763043        10.3492249028
       190         35          4             -0.15040        10.3142872568         1.1842215443        11.2994427871
       191         35          4             -0.15040        11.2994425453         1.1842212176        10.3142620854
       192         35          6             -0.15320         9.7172843676        -0.0700172891        11.3143538326
       193         35          6             -0.15320        11.3143096807        -0.0699995983         9.7172651453
       194         35          2              0.14200        10.0008076027         1.9718056942        11.9952579450
       195         35          2              0.14200        11.9952498748         1.9718050216        10.0007642107
       196         35          3              0.11450        10.1186151240        -1.8338802449        10.1186214254
       197         36          5             -0.05190         6.5016750972        10.3492249028        17.6362763043
       198         36          4             -0.15040         6.5366763684        11.2993790855        15.6666488542
       199         36          4             -0.15040         5.5513937589        10.3143257197        15.6667083846
       200         36          6             -0.15320         7.1337188688        11.3142506550        16.9208693011
       201         36          6             -0.15320         5.5364871535         9.7173683902        16.9209475855
       202         36          2              0.14200         6.8502222839        11.9951300578        14.8790343774
       203         36          2              0.14200         4.8555222511        10.0008941146        14.8791549077
       204         36          3              0.11450         6.7322865766        10.1186231250        18.6847802447

Bonds

	       1        1       60      185
	       2        1       60       65
	       3        1       60       72
	       4        1       60      200
	       5        1       77      192
	       6        1       77       90
	       7        1       77       73
	       8        1       77       81
	       9        1      120      124
	      10        1      120       82
	      11        1      120      132
	      12        1      120       38
	      13        1      163      158
	      14        1      163      106
	      15        1      163       13
	      16        1      163      141
	      17        1      137      115
	      18        1      137       89
	      19        1      137      142
	      20        1      137       47
	      21        1      154      159
	      22        1      154       55
	      23        1      154      167
	      24        1      154       22
	      25        1      111      116
	      26        1      111       64
	      27        1      111      133
	      28        1      111      149
	      29        1       94      193
	      30        1       94      150
	      31        1       94       98
	      32        1       94      107
	      33        1       43      177
	      34        1       43       56
	      35        1       43       99
	      36        1       43       48
	      37        1      172      125
	      38        1      172      201
	      39        1      172      168
	      40        1      172        5
	      41        1        1      176
	      42        1        1       14
	      43        1        1       30
	      44        1        1        6
	      45        1       18      184
	      46        1       18       39
	      47        1       18       23
	      48        1       18       31
	      49        3      121      128
	      50        4      122      123
	      51        6      121      124
	      52        6      121      125
	      53        2      122      126
	      54        2      123      127
	      55        5      122      124
	      56        5      123      125
	      57        3      173      180
	      58        4      174      175
	      59        6      173      176
	      60        6      173      177
	      61        2      174      178
	      62        2      175      179
	      63        5      174      176
	      64        5      175      177
	      65        3      155      162
	      66        4      156      157
	      67        6      155      158
	      68        6      155      159
	      69        2      156      160
	      70        2      157      161
	      71        5      156      158
	      72        5      157      159
	      73        3      181      188
	      74        4      182      183
	      75        6      181      184
	      76        6      181      185
	      77        2      182      186
	      78        2      183      187
	      79        5      182      184
	      80        5      183      185
	      81        3      189      196
	      82        4      190      191
	      83        6      189      192
	      84        6      189      193
	      85        2      190      194
	      86        2      191      195
	      87        5      190      192
	      88        5      191      193
	      89        3      112      119
	      90        4      113      114
	      91        6      112      115
	      92        6      112      116
	      93        2      113      117
	      94        2      114      118
	      95        5      113      115
	      96        5      114      116
	      97        3       61       68
	      98        4       62       63
	      99        6       61       64
	     100        6       61       65
	     101        2       62       66
	     102        2       63       67
	     103        5       62       64
	     104        5       63       65
	     105        3       86       93
	     106        4       87       88
	     107        6       86       89
	     108        6       86       90
	     109        2       87       91
	     110        2       88       92
	     111        5       87       89
	     112        5       88       90
	     113        3       69       76
	     114        4       70       71
	     115        6       69       72
	     116        6       69       73
	     117        2       70       74
	     118        2       71       75
	     119        5       70       72
	     120        5       71       73
	     121        3       78       85
	     122        4       79       80
	     123        6       78       81
	     124        6       78       82
	     125        2       79       83
	     126        2       80       84
	     127        5       79       81
	     128        5       80       82
	     129        3      129      136
	     130        4      130      131
	     131        6      129      132
	     132        6      129      133
	     133        2      130      134
	     134        2      131      135
	     135        5      130      132
	     136        5      131      133
	     137        3       35       42
	     138        4       36       37
	     139        6       35       38
	     140        6       35       39
	     141        2       36       40
	     142        2       37       41
	     143        5       36       38
	     144        5       37       39
	     145        3      197      204
	     146        4      198      199
	     147        6      197      200
	     148        6      197      201
	     149        2      198      202
	     150        2      199      203
	     151        5      198      200
	     152        5      199      201
	     153        3      138      145
	     154        4      139      140
	     155        6      138      141