# 'ZIF-4-cg' generated by CHIC (2023-10-24 21:17:10.014084)

48 atoms
64 bonds
0 angles
0 dihedrals
0 impropers

2 atom types
1 bond types
0 angle types
0 dihedral types
0 improper types

0.000000 15.395000  xlo xhi
0.000000 15.307300  ylo yhi
0.000000 18.426000  zlo zhi

Masses

1 15.9994 # O
2 28.0855 # Si

Atoms # style = "full"

     1      1      1  0.00000   13.3559630400   15.0636996278   14.9601062520
     2      2      1  0.00000    6.1529812300   12.5461079968    2.2344841680
     3      3      1  0.00000    2.3792972500   13.5545529208   17.0855085000
     4      4      2  0.00000    3.1120992500   13.1720847230    1.6896273480
     5      5      1  0.00000    1.5115118900   12.1746916696   12.2336847360
     6      6      2  0.00000    0.1483308250   12.7972089460   14.9940285180
     7      7      1  0.00000    5.6584630400    7.8972503722    3.4658937480
     8      8      1  0.00000   13.8504812300   10.4148420032   16.1915158320
     9      9      1  0.00000   10.0767972500    9.4063970792    1.3404915000
    10     10      2  0.00000   10.8095992500    9.7888652770   16.7363726520
    11     11      1  0.00000    9.2090118900   10.7862583304    6.1923152640
    12     12      2  0.00000    7.8458308250   10.1637410540    3.4319714820
    13     13      1  0.00000    9.7365369600    7.4100496278   14.9601062520
    14     14      1  0.00000    1.5445187700    4.8924579968    2.2344841680
    15     15      1  0.00000    5.3182027500    5.9009029208   17.0855085000
    16     16      2  0.00000    4.5854007500    5.5184347230    1.6896273480
    17     17      1  0.00000    6.1859881100    4.5210416696   12.2336847360
    18     18      2  0.00000    7.5491691750    5.1435589460   14.9940285180
    19     19      1  0.00000    2.0390369600    0.2436003722    3.4658937480
    20     20      1  0.00000    9.2420187700    2.7611920032   16.1915158320
    21     21      1  0.00000   13.0157027500    1.7527470792    1.3404915000
    22     22      2  0.00000   12.2829007500    2.1352152770   16.7363726520
    23     23      1  0.00000   13.8834881100    3.1326083304    6.1923152640
    24     24      2  0.00000   15.2466691750    2.5100910540    3.4319714820
    25     25      1  0.00000    2.0390369600    7.4100496278   12.6788937480
    26     26      1  0.00000    9.2420187700    4.8924579968    6.9785158320
    27     27      1  0.00000   13.0157027500    5.9009029208   10.5534915000
    28     28      2  0.00000   12.2829007500    5.5184347230    7.5233726520
    29     29      1  0.00000   13.8834881100    4.5210416696   15.4053152640
    30     30      2  0.00000   15.2466691750    5.1435589460   12.6449714820
    31     31      1  0.00000    9.7365369600    0.2436003722    5.7471062520
    32     32      1  0.00000    1.5445187700    2.7611920032   11.4474841680
    33     33      1  0.00000    5.3182027500    1.7527470792    7.8725085000
    34     34      2  0.00000    4.5854007500    2.1352152770   10.9026273480
    35     35      1  0.00000    6.1859881100    3.1326083304    3.0206847360
    36     36      2  0.00000    7.5491691750    2.5100910540    5.7810285180
    37     37      1  0.00000   13.3559630400    7.8972503722    5.7471062520
    38     38      1  0.00000    6.1529812300   10.4148420032   11.4474841680
    39     39      1  0.00000    2.3792972500    9.4063970792    7.8725085000
    40     40      2  0.00000    3.1120992500    9.7888652770   10.9026273480
    41     41      1  0.00000    1.5115118900   10.7862583304    3.0206847360
    42     42      2  0.00000    0.1483308250   10.1637410540    5.7810285180
    43     43      1  0.00000    5.6584630400   15.0636996278   12.6788937480
    44     44      1  0.00000   13.8504812300   12.5461079968    6.9785158320
    45     45      1  0.00000   10.0767972500   13.5545529208   10.5534915000
    46     46      2  0.00000   10.8095992500   13.1720847230    7.5233726520
    47     47      1  0.00000    9.2090118900   12.1746916696   15.4053152640
    48     48      2  0.00000    7.8458308250   12.7972089460   12.6449714820

Bonds

1 1 1 22
2 1 1 6
3 1 2 4
4 1 2 12
5 1 3 6
6 1 3 4
7 1 4 41
8 1 4 19
9 1 5 6
10 1 5 40
11 1 6 8
12 1 7 16
13 1 7 12
14 1 8 10
15 1 9 12
16 1 9 10
17 1 10 47
18 1 10 13
19 1 11 12
20 1 11 46
21 1 13 18
22 1 14 16
23 1 14 24
24 1 15 18
25 1 15 16
26 1 16 35
27 1 17 18
28 1 17 34
29 1 18 20
30 1 19 24
31 1 20 22
32 1 21 24
33 1 21 22
34 1 22 29
35 1 23 24
36 1 23 28
37 1 25 40
38 1 25 30
39 1 26 28
40 1 26 36
41 1 27 30
42 1 27 28
43 1 28 37
44 1 29 30
45 1 30 32
46 1 31 46
47 1 31 36
48 1 32 34
49 1 33 36
50 1 33 34
51 1 34 43
52 1 35 36
53 1 37 42
54 1 38 40
55 1 38 48
56 1 39 42
57 1 39 40
58 1 41 42
59 1 42 44
60 1 43 48
61 1 44 46
62 1 45 48
63 1 45 46
64 1 47 48
