# 'ZIF-4-cg' generated by CHIC (2023-08-12 12:09:49.234685)

56 atoms
64 bonds
0 angles
0 dihedrals
0 impropers

2 atom types
1 bond types
0 angle types
0 dihedral types
0 improper types

0.000000 15.395000  xlo xhi
0.000000 15.307300  ylo yhi
0.000000 18.426000  zlo zhi

Masses

1 15.9994 # O
2 28.0855 # Si

Atoms # style = "full"

     1      1      1      0    5.0185133653   12.4367985675    7.3381545000
     2      2      1      0    5.0185133653   10.5241514325   16.5511545000
     3      3      1      0    2.6789866347    2.8705014325   16.5511545000
     4      4      1      0   10.3764866346    4.7831485675    1.8748455000
     5      5      1      0   10.3764866346    2.8705014325   11.0878455000
     6      6      1      0    2.6789866346    4.7831485675    7.3381545000
     7      7      1      0   12.7160133653   12.4367985675    1.8748455000
     8      8      1      0   12.7160133653   10.5241514325   11.0878455000
     9      9      1      0   13.2679113375   15.0588051186   14.8193638575
    10     10      1      0    6.2508895812   12.6677091880    2.1775846800
    11     11      1      0    2.4938937812   13.6383833492   17.0109983625
    12     12      2      0    3.1120992500   13.1720847230    1.6896273480
    13     13      1      0    1.5079594937   12.3102454647   12.1369298100
    14     14      2      0    0.1483308250   12.7972089460   14.9940285180
    15     15      1      0    5.5704113375    7.9021448814    3.6066361425
    16     16      1      0   13.9483895812   10.2932408120   16.2484153200
    17     17      1      0   10.1913937813    9.3225666507    1.4150016375
    18     18      2      0   10.8095992500    9.7888652770   16.7363726520
    19     19      1      0    9.2054594938   10.6507045353    6.2890701900
    20     20      2      0    7.8458308250   10.1637410540    3.4319714820
    21     21      1      0    9.8245886625    7.4051551186   14.8193638575
    22     22      1      0    1.4466104187    5.0140591880    2.1775846800
    23     23      1      0    5.2036062188    5.9847333492   17.0109983625
    24     24      2      0    4.5854007500    5.5184347230    1.6896273480
    25     25      1      0    6.1895405063    4.6565954648   12.1369298100
    26     26      2      0    7.5491691750    5.1435589460   14.9940285180
    27     27      1      0    2.1270886625    0.2484948814    3.6066361425
    28     28      1      0    9.1441104187    2.6395908120   16.2484153200
    29     29      1      0   12.9011062187    1.6689166507    1.4150016375
    30     30      2      0   12.2829007500    2.1352152770   16.7363726520
    31     31      1      0   13.8870405062    2.9970545353    6.2890701900
    32     32      2      0   15.2466691750    2.5100910540    3.4319714820
    33     33      1      0    2.1270886625    7.4051551186   12.8196361425
    34     34      1      0    9.1441104187    5.0140591880    7.0354153200
    35     35      1      0   12.9011062187    5.9847333492   10.6280016375
    36     36      2      0   12.2829007500    5.5184347230    7.5233726520
    37     37      1      0   13.8870405062    4.6565954648   15.5020701900
    38     38      2      0   15.2466691750    5.1435589460   12.6449714820
    39     39      1      0    9.8245886625    0.2484948814    5.6063638575
    40     40      1      0    1.4466104187    2.6395908120   11.3905846800
    41     41      1      0    5.2036062188    1.6689166507    7.7979983625
    42     42      2      0    4.5854007500    2.1352152770   10.9026273480
    43     43      1      0    6.1895405063    2.9970545353    2.9239298100
    44     44      2      0    7.5491691750    2.5100910540    5.7810285180
    45     45      1      0   13.2679113375    7.9021448814    5.6063638575
    46     46      1      0    6.2508895812   10.2932408120   11.3905846800
    47     47      1      0    2.4938937812    9.3225666507    7.7979983625
    48     48      2      0    3.1120992500    9.7888652770   10.9026273480
    49     49      1      0    1.5079594937   10.6507045353    2.9239298100
    50     50      2      0    0.1483308250   10.1637410540    5.7810285180
    51     51      1      0    5.5704113375   15.0588051186   12.8196361425
    52     52      1      0   13.9483895812   12.6677091880    7.0354153200
    53     53      1      0   10.1913937813   13.6383833492   10.6280016375
    54     54      2      0   10.8095992500   13.1720847230    7.5233726520
    55     55      1      0    9.2054594938   12.3102454647   15.5020701900
    56     56      2      0    7.8458308250   12.7972089460   12.6449714820

Bonds

1 1 9 30
2 1 9 14
3 1 10 12
4 1 10 20
5 1 11 14
6 1 11 12
7 1 12 49
8 1 12 27
9 1 13 14
10 1 13 48
11 1 14 16
12 1 15 24
13 1 15 20
14 1 16 18
15 1 17 20
16 1 17 18
17 1 18 55
18 1 18 21
19 1 19 20
20 1 19 54
21 1 21 26
22 1 22 24
23 1 22 32
24 1 23 26
25 1 23 24
26 1 24 43
27 1 25 26
28 1 25 42
29 1 26 28
30 1 27 32
31 1 28 30
32 1 29 32
33 1 29 30
34 1 30 37
35 1 31 32
36 1 31 36
37 1 33 48
38 1 33 38
39 1 34 36
40 1 34 44
41 1 35 38
42 1 35 36
43 1 36 45
44 1 37 38
45 1 38 40
46 1 39 54
47 1 39 44
48 1 40 42
49 1 41 44
50 1 41 42
51 1 42 51
52 1 43 44
53 1 45 50
54 1 46 48
55 1 46 56
56 1 47 50
57 1 47 48
58 1 49 50
59 1 50 52
60 1 51 56
61 1 52 54
62 1 53 56
63 1 53 54
64 1 55 56
