# 'net' generated by CHIC (2024-05-05 21:49:10.040247)

46 atoms
92 bonds
134 angles
0 dihedrals
0 impropers

1 atom types
1 bond types
2 angle types
0 dihedral types
0 improper types

# Average bond length information:
# type 1: 3.188 Å

# Average bond angle information:
# type 1: 108.120 degrees
# type 2: 125.884 degrees

0.0                  13.705  xlo xhi
0.0                  13.705  ylo yhi
0.0                  13.705  zlo zhi
