# 'ZIF-8-cg' generated by CHIC (2023-08-12 12:02:41.098368)

36 atoms
48 bonds
0 angles
0 dihedrals
0 impropers

2 atom types
1 bond types
0 angle types
0 dihedral types
0 improper types

0.000000 16.850900  xlo xhi
0.000000 16.850900  ylo yhi
0.000000 16.850900  zlo zhi

Masses

1 15.9994 # O
2 28.0855 # Si

Atoms # style = "full"

     1      1      1      0    6.2519902494    6.2519902494    0.2886099140
     2      2      1      0    0.2886099140   10.5989097506   10.5989097506
     3      3      1      0    0.2886099140    6.2519902494    6.2519902494
     4      4      1      0   10.5989097506   10.5989097506    0.2886099140
     5      5      1      0   10.5989097506    0.2886099140   10.5989097506
     6      6      1      0    6.2519902494    0.2886099140    6.2519902494
     7      7      1      0    8.1368400860   14.6774402494    2.1734597506
     8      8      1      0    6.2519902494   16.5622900860   10.5989097506
     9      9      2      0    8.4254500000   12.6381750000    0.0000000000
    10     10      1      0    8.7140599140   14.6774402494   14.6774402494
    11     11      2      0    8.4254500000    0.0000000000   12.6381750000
    12     12      1      0    8.1368400860    2.1734597506   14.6774402494
    13     13      2      0    8.4254500000    4.2127250000    0.0000000000
    14     14      1      0    8.7140599140    2.1734597506    2.1734597506
    15     15      1      0   10.5989097506    6.2519902494   16.5622900860
    16     16      1      0    6.2519902494   10.5989097506   16.5622900860
    17     17      2      0   -0.0000000000    4.2127250000    8.4254500000
    18     18      1      0    2.1734597506    2.1734597506    8.7140599140
    19     19      2      0    4.2127250000    0.0000000000    8.4254500000
    20     20      2      0   -0.0000000000    8.4254500000    4.2127250000
    21     21      2      0    8.4254500000    0.0000000000    4.2127250000
    22     22      1      0   10.5989097506   16.5622900860    6.2519902494
    23     23      1      0   16.5622900860   10.5989097506    6.2519902494
    24     24      1      0   14.6774402494   14.6774402494    8.7140599140
    25     25      2      0   12.6381750000    0.0000000000    8.4254500000
    26     26      1      0   14.6774402494    2.1734597506    8.1368400860
    27     27      2      0   -0.0000000000   12.6381750000    8.4254500000
    28     28      1      0    2.1734597506   14.6774402494    8.1368400860
    29     29      2      0    4.2127250000    8.4254500000    0.0000000000
    30     30      1      0    2.1734597506    8.7140599140    2.1734597506
    31     31      1      0   16.5622900860    6.2519902494   10.5989097506
    32     32      2      0   -0.0000000000    8.4254500000   12.6381750000
    33     33      1      0    2.1734597506    8.1368400860   14.6774402494
    34     34      1      0   14.6774402494    8.1368400860    2.1734597506
    35     35      2      0   12.6381750000    8.4254500000    0.0000000000
    36     36      1      0   14.6774402494    8.7140599140   14.6774402494

Bonds

1 1 1 13
2 1 1 29
3 1 2 32
4 1 2 27
5 1 3 17
6 1 3 20
7 1 4 35
8 1 4 9
9 1 5 11
10 1 5 25
11 1 6 19
12 1 6 21
13 1 7 21
14 1 7 9
15 1 8 19
16 1 8 11
17 1 9 10
18 1 9 16
19 1 10 11
20 1 11 12
21 1 12 13
22 1 13 14
23 1 13 15
24 1 14 21
25 1 15 35
26 1 16 29
27 1 17 26
28 1 17 31
29 1 17 18
30 1 18 19
31 1 19 28
32 1 20 23
33 1 20 30
34 1 20 34
35 1 21 22
36 1 22 25
37 1 23 27
38 1 24 25
39 1 24 27
40 1 25 26
41 1 27 28
42 1 29 30
43 1 29 33
44 1 31 32
45 1 32 36
46 1 32 33
47 1 34 35
48 1 35 36
