# 'ZIF-8-cg-supercell' generated by CHIC (2023-10-25 16:17:35.442078)

216 atoms
288 bonds
0 angles
0 dihedrals
0 impropers

2 atom types
1 bond types
0 angle types
0 dihedral types
0 improper types

0.000000 16.850900  xlo xhi
0.000000 50.552700  ylo yhi
0.000000 33.701800  zlo zhi

Masses

1 28.0855 # Si
2 15.9994 # O

Atoms # style = "full"

     1      1      2  0.00000    6.2519902494    6.2519904179   17.1395100826
     2      2      2  0.00000    6.2519902494    6.2519904179    0.2886100826
     3      3      2  0.00000    0.2886099140   10.5989099191   10.5989097506
     4      4      2  0.00000    0.2886099140    6.2519904179    6.2519902494
     5      5      2  0.00000   10.5989097506   10.5989099191   17.1395100826
     6      6      2  0.00000   10.5989097506   10.5989099191    0.2886100826
     7      7      2  0.00000   10.5989097506   17.1395097455   10.5989097506
     8      8      2  0.00000   10.5989097506    0.2886099140   10.5989097506
     9      9      2  0.00000    6.2519902494   17.1395097455    6.2519902494
    10     10      2  0.00000    6.2519902494    0.2886099140    6.2519902494
    11     11      2  0.00000    8.1368400860   14.6774400809    2.1734597506
    12     12      2  0.00000    6.2519902494   50.2640900860   10.5989097506
    13     13      2  0.00000    6.2519902494   16.5622899174   10.5989097506
    14     14      1  0.00000    8.4254500000   12.6381750000    0.0000000000
    15     15      2  0.00000    8.7140599140   14.6774400809   14.6774402494
    16     16      1  0.00000    8.4254500000    0.0000000000   12.6381750000
    17     17      2  0.00000    8.1368400860    2.1734597506   14.6774402494
    18     18      1  0.00000    8.4254500000    4.2127248315    0.0000000000
    19     19      2  0.00000    8.7140599140    2.1734597506    2.1734597506
    20     20      2  0.00000   10.5989097506    6.2519904179   33.4131899174
    21     21      2  0.00000   10.5989097506    6.2519904179   16.5622899174
    22     22      2  0.00000    6.2519902494   10.5989099191   33.4131899174
    23     23      2  0.00000    6.2519902494   10.5989099191   16.5622899174
    24     24      1  0.00000   -0.0000000000    4.2127248315    8.4254500000
    25     25      2  0.00000    2.1734597506    2.1734597506    8.7140600826
    26     26      1  0.00000    4.2127250000    0.0000000000    8.4254500000
    27     27      1  0.00000   -0.0000000000    8.4254501685    4.2127250000
    28     28      1  0.00000    8.4254500000    0.0000000000    4.2127250000
    29     29      2  0.00000   10.5989097506   50.2640900860    6.2519902494
    30     30      2  0.00000   10.5989097506   16.5622899174    6.2519902494
    31     31      2  0.00000   16.5622900860   10.5989099191    6.2519902494
    32     32      2  0.00000   14.6774402494   14.6774400809    8.7140600826
    33     33      1  0.00000   12.6381750000    0.0000000000    8.4254500000
    34     34      2  0.00000   14.6774402494    2.1734597506    8.1368399174
    35     35      1  0.00000   -0.0000000000   12.6381750000    8.4254500000
    36     36      2  0.00000    2.1734597506   14.6774400809    8.1368399174
    37     37      1  0.00000    4.2127250000    8.4254501685    0.0000000000
    38     38      2  0.00000    2.1734597506    8.7140600826    2.1734597506
    39     39      2  0.00000   16.5622900860    6.2519904179   10.5989097506
    40     40      1  0.00000   -0.0000000000    8.4254501685   12.6381750000
    41     41      2  0.00000    2.1734597506    8.1368402545   14.6774402494
    42     42      2  0.00000   14.6774402494    8.1368402545    2.1734597506
    43     43      1  0.00000   12.6381750000    8.4254501685    0.0000000000
    44     44      2  0.00000   14.6774402494    8.7140600826   14.6774402494
    45     45      2  0.00000    0.2886099140   10.5989099191   27.4498097506
    46     46      2  0.00000    0.2886099140    6.2519904179   23.1028902494
    47     47      2  0.00000   10.5989097506   17.1395097455   27.4498097506
    48     48      2  0.00000   10.5989097506    0.2886099140   27.4498097506
    49     49      2  0.00000    6.2519902494   17.1395097455   23.1028902494
    50     50      2  0.00000    6.2519902494    0.2886099140   23.1028902494
    51     51      2  0.00000    8.1368400860   14.6774400809   19.0243597506
    52     52      2  0.00000    6.2519902494   50.2640900860   27.4498097506
    53     53      2  0.00000    6.2519902494   16.5622899174   27.4498097506
    54     54      1  0.00000    8.4254500000   12.6381750000   16.8509000000
    55     55      2  0.00000    8.7140599140   14.6774400809   31.5283402494
    56     56      1  0.00000    8.4254500000    0.0000000000   29.4890750000
    57     57      2  0.00000    8.1368400860    2.1734597506   31.5283402494
    58     58      1  0.00000    8.4254500000    4.2127248315   16.8509000000
    59     59      2  0.00000    8.7140599140    2.1734597506   19.0243597506
    60     60      1  0.00000   -0.0000000000    4.2127248315   25.2763500000
    61     61      2  0.00000    2.1734597506    2.1734597506   25.5649600826
    62     62      1  0.00000    4.2127250000    0.0000000000   25.2763500000
    63     63      1  0.00000   -0.0000000000    8.4254501685   21.0636250000
    64     64      1  0.00000    8.4254500000    0.0000000000   21.0636250000
    65     65      2  0.00000   10.5989097506   50.2640900860   23.1028902494
    66     66      2  0.00000   10.5989097506   16.5622899174   23.1028902494
    67     67      2  0.00000   16.5622900860   10.5989099191   23.1028902494
    68     68      2  0.00000   14.6774402494   14.6774400809   25.5649600826
    69     69      1  0.00000   12.6381750000    0.0000000000   25.2763500000
    70     70      2  0.00000   14.6774402494    2.1734597506   24.9877399174
    71     71      1  0.00000   -0.0000000000   12.6381750000   25.2763500000
    72     72      2  0.00000    2.1734597506   14.6774400809   24.9877399174
    73     73      1  0.00000    4.2127250000    8.4254501685   16.8509000000
    74     74      2  0.00000    2.1734597506    8.7140600826   19.0243597506
    75     75      2  0.00000   16.5622900860    6.2519904179   27.4498097506
    76     76      1  0.00000   -0.0000000000    8.4254501685   29.4890750000
    77     77      2  0.00000    2.1734597506    8.1368402545   31.5283402494
    78     78      2  0.00000   14.6774402494    8.1368402545   19.0243597506
    79     79      1  0.00000   12.6381750000    8.4254501685   16.8509000000
    80     80      2  0.00000   14.6774402494    8.7140600826   31.5283402494
    81     81      2  0.00000    6.2519902494   23.1028902494   17.1395100826
    82     82      2  0.00000    6.2519902494   23.1028902494    0.2886100826
    83     83      2  0.00000    0.2886099140   27.4498097506   10.5989097506
    84     84      2  0.00000    0.2886099140   23.1028902494    6.2519902494
    85     85      2  0.00000   10.5989097506   27.4498097506   17.1395100826
    86     86      2  0.00000   10.5989097506   27.4498097506    0.2886100826
    87     87      2  0.00000   10.5989097506   33.9904100826   10.5989097506
    88     88      2  0.00000    6.2519902494   33.9904100826    6.2519902494
    89     89      2  0.00000    8.1368400860   31.5283404179    2.1734597506
    90     90      2  0.00000    6.2519902494   33.4131902545   10.5989097506
    91     91      1  0.00000    8.4254500000   29.4890748315    0.0000000000
    92     92      2  0.00000    8.7140599140   31.5283404179   14.6774402494
    93     93      1  0.00000    8.4254500000   16.8508998315   12.6381750000
    94     94      2  0.00000    8.1368400860   19.0243595821   14.6774402494
    95     95      1  0.00000    8.4254500000   21.0636251685    0.0000000000
    96     96      2  0.00000    8.7140599140   19.0243595821    2.1734597506
    97     97      2  0.00000   10.5989097506   23.1028902494   33.4131899174
    98     98      2  0.00000   10.5989097506   23.1028902494   16.5622899174
    99     99      2  0.00000    6.2519902494   27.4498097506   33.4131899174
   100    100      2  0.00000    6.2519902494   27.4498097506   16.5622899174
   101    101      1  0.00000   -0.0000000000   21.0636251685    8.4254500000
   102    102      2  0.00000    2.1734597506   19.0243595821    8.7140600826
   103    103      1  0.00000    4.2127250000   16.8508998315    8.4254500000
   104    104      1  0.00000   -0.0000000000   25.2763500000    4.2127250000
   105    105      1  0.00000    8.4254500000   16.8508998315    4.2127250000
   106    106      2  0.00000   10.5989097506   33.4131902545    6.2519902494
   107    107      2  0.00000   16.5622900860   27.4498097506    6.2519902494
   108    108      2  0.00000   14.6774402494   31.5283404179    8.7140600826
   109    109      1  0.00000   12.6381750000   16.8508998315    8.4254500000
   110    110      2  0.00000   14.6774402494   19.0243595821    8.1368399174
   111    111      1  0.00000   -0.0000000000   29.4890748315    8.4254500000
   112    112      2  0.00000    2.1734597506   31.5283404179    8.1368399174
   113    113      1  0.00000    4.2127250000   25.2763500000    0.0000000000
   114    114      2  0.00000    2.1734597506   25.5649599140    2.1734597506
   115    115      2  0.00000   16.5622900860   23.1028902494   10.5989097506
   116    116      1  0.00000   -0.0000000000   25.2763500000   12.6381750000
   117    117      2  0.00000    2.1734597506   24.9877400860   14.6774402494
   118    118      2  0.00000   14.6774402494   24.9877400860    2.1734597506
   119    119      1  0.00000   12.6381750000   25.2763500000    0.0000000000
   120    120      2  0.00000   14.6774402494   25.5649599140   14.6774402494
   121    121      2  0.00000    0.2886099140   27.4498097506   27.4498097506
   122    122      2  0.00000    0.2886099140   23.1028902494   23.1028902494
   123    123      2  0.00000   10.5989097506   33.9904100826   27.4498097506
   124    124      2  0.00000    6.2519902494   33.9904100826   23.1028902494
   125    125      2  0.00000    8.1368400860   31.5283404179   19.0243597506
   126    126      2  0.00000    6.2519902494   33.4131902545   27.4498097506
   127    127      1  0.00000    8.4254500000   29.4890748315   16.8509000000
   128    128      2  0.00000    8.7140599140   31.5283404179   31.5283402494
   129    129      1  0.00000    8.4254500000   16.8508998315   29.4890750000
   130    130      2  0.00000    8.1368400860   19.0243595821   31.5283402494
   131    131      1  0.00000    8.4254500000   21.0636251685   16.8509000000
   132    132      2  0.00000    8.7140599140   19.0243595821   19.0243597506
   133    133      1  0.00000   -0.0000000000   21.0636251685   25.2763500000
   134    134      2  0.00000    2.1734597506   19.0243595821   25.5649600826
   135    135      1  0.00000    4.2127250000   16.8508998315   25.2763500000
   136    136      1  0.00000   -0.0000000000   25.2763500000   21.0636250000
   137    137      1  0.00000    8.4254500000   16.8508998315   21.0636250000
   138    138      2  0.00000   10.5989097506   33.4131902545   23.1028902494
   139    139      2  0.00000   16.5622900860   27.4498097506   23.1028902494
   140    140      2  0.00000   14.6774402494   31.5283404179   25.5649600826
   141    141      1  0.00000   12.6381750000   16.8508998315   25.2763500000
   142    142      2  0.00000   14.6774402494   19.0243595821   24.9877399174
   143    143      1  0.00000   -0.0000000000   29.4890748315   25.2763500000
   144    144      2  0.00000    2.1734597506   31.5283404179   24.9877399174
   145    145      1  0.00000    4.2127250000   25.2763500000   16.8509000000
   146    146      2  0.00000    2.1734597506   25.5649599140   19.0243597506
   147    147      2  0.00000   16.5622900860   23.1028902494   27.4498097506
   148    148      1  0.00000   -0.0000000000   25.2763500000   29.4890750000
   149    149      2  0.00000    2.1734597506   24.9877400860   31.5283402494
   150    150      2  0.00000   14.6774402494   24.9877400860   19.0243597506
   151    151      1  0.00000   12.6381750000   25.2763500000   16.8509000000
   152    152      2  0.00000   14.6774402494   25.5649599140   31.5283402494
   153    153      2  0.00000    6.2519902494   39.9537900809   17.1395100826
   154    154      2  0.00000    6.2519902494   39.9537900809    0.2886100826
   155    155      2  0.00000    0.2886099140   44.3007095821   10.5989097506
   156    156      2  0.00000    0.2886099140   39.9537900809    6.2519902494
   157    157      2  0.00000   10.5989097506   44.3007095821   17.1395100826
   158    158      2  0.00000   10.5989097506   44.3007095821    0.2886100826
   159    159      2  0.00000    8.1368400860   48.3792402494    2.1734597506
   160    160      1  0.00000    8.4254500000   46.3399751685    0.0000000000
   161    161      2  0.00000    8.7140599140   48.3792402494   14.6774402494
   162    162      1  0.00000    8.4254500000   33.7018001685   12.6381750000
   163    163      2  0.00000    8.1368400860   35.8752599191   14.6774402494
   164    164      1  0.00000    8.4254500000   37.9145250000    0.0000000000
   165    165      2  0.00000    8.7140599140   35.8752599191    2.1734597506
   166    166      2  0.00000   10.5989097506   39.9537900809   33.4131899174
   167    167      2  0.00000   10.5989097506   39.9537900809   16.5622899174
   168    168      2  0.00000    6.2519902494   44.3007095821   33.4131899174
   169    169      2  0.00000    6.2519902494   44.3007095821   16.5622899174
   170    170      1  0.00000   -0.0000000000   37.9145250000    8.4254500000
   171    171      2  0.00000    2.1734597506   35.8752599191    8.7140600826
   172    172      1  0.00000    4.2127250000   33.7018001685    8.4254500000
   173    173      1  0.00000   -0.0000000000   42.1272498315    4.2127250000
   174    174      1  0.00000    8.4254500000   33.7018001685    4.2127250000
   175    175      2  0.00000   16.5622900860   44.3007095821    6.2519902494
   176    176      2  0.00000   14.6774402494   48.3792402494    8.7140600826
   177    177      1  0.00000   12.6381750000   33.7018001685    8.4254500000
   178    178      2  0.00000   14.6774402494   35.8752599191    8.1368399174
   179    179      1  0.00000   -0.0000000000   46.3399751685    8.4254500000
   180    180      2  0.00000    2.1734597506   48.3792402494    8.1368399174
   181    181      1  0.00000    4.2127250000   42.1272498315    0.0000000000
   182    182      2  0.00000    2.1734597506   42.4158597455    2.1734597506
   183    183      2  0.00000   16.5622900860   39.9537900809   10.5989097506
   184    184      1  0.00000   -0.0000000000   42.1272498315   12.6381750000
   185    185      2  0.00000    2.1734597506   41.8386399174   14.6774402494
   186    186      2  0.00000   14.6774402494   41.8386399174    2.1734597506
   187    187      1  0.00000   12.6381750000   42.1272498315    0.0000000000
   188    188      2  0.00000   14.6774402494   42.4158597455   14.6774402494
   189    189      2  0.00000    0.2886099140   44.3007095821   27.4498097506
   190    190      2  0.00000    0.2886099140   39.9537900809   23.1028902494
   191    191      2  0.00000    8.1368400860   48.3792402494   19.0243597506
   192    192      1  0.00000    8.4254500000   46.3399751685   16.8509000000
   193    193      2  0.00000    8.7140599140   48.3792402494   31.5283402494
   194    194      1  0.00000    8.4254500000   33.7018001685   29.4890750000
   195    195      2  0.00000    8.1368400860   35.8752599191   31.5283402494
   196    196      1  0.00000    8.4254500000   37.9145250000   16.8509000000
   197    197      2  0.00000    8.7140599140   35.8752599191   19.0243597506
   198    198      1  0.00000   -0.0000000000   37.9145250000   25.2763500000
   199    199      2  0.00000    2.1734597506   35.8752599191   25.5649600826
   200    200      1  0.00000    4.2127250000   33.7018001685   25.2763500000
   201    201      1  0.00000   -0.0000000000   42.1272498315   21.0636250000
   202    202      1  0.00000    8.4254500000   33.7018001685   21.0636250000
   203    203      2  0.00000   16.5622900860   44.3007095821   23.1028902494
   204    204      2  0.00000   14.6774402494   48.3792402494   25.5649600826
   205    205      1  0.00000   12.6381750000   33.7018001685   25.2763500000
   206    206      2  0.00000   14.6774402494   35.8752599191   24.9877399174
   207    207      1  0.00000   -0.0000000000   46.3399751685   25.2763500000
   208    208      2  0.00000    2.1734597506   48.3792402494   24.9877399174
   209    209      1  0.00000    4.2127250000   42.1272498315   16.8509000000
   210    210      2  0.00000    2.1734597506   42.4158597455   19.0243597506
   211    211      2  0.00000   16.5622900860   39.9537900809   27.4498097506
   212    212      1  0.00000   -0.0000000000   42.1272498315   29.4890750000
   213    213      2  0.00000    2.1734597506   41.8386399174   31.5283402494
   214    214      2  0.00000   14.6774402494   41.8386399174   19.0243597506
   215    215      1  0.00000   12.6381750000   42.1272498315   16.8509000000
   216    216      2  0.00000   14.6774402494   42.4158597455   31.5283402494

Bonds

1 1 1 58
2 1 1 73
3 1 2 18
4 1 2 37
5 1 3 40
6 1 3 35
7 1 4 24
8 1 4 27
9 1 5 79
10 1 5 54
11 1 6 43
12 1 6 14
13 1 7 93
14 1 7 109
15 1 8 16
16 1 8 33
17 1 9 103
18 1 9 105
19 1 10 26
20 1 10 28
21 1 11 105
22 1 11 14
23 1 12 26
24 1 12 16
25 1 13 103
26 1 13 93
27 1 14 55
28 1 14 22
29 1 15 93
30 1 15 54
31 1 16 161
32 1 16 17
33 1 17 58
34 1 18 19
35 1 18 20
36 1 18 57
37 1 19 28
38 1 20 43
39 1 21 58
40 1 21 79
41 1 22 37
42 1 23 73
43 1 23 54
44 1 24 34
45 1 24 39
46 1 24 25
47 1 25 26
48 1 26 180
49 1 27 31
50 1 27 38
51 1 27 42
52 1 28 159
53 1 28 29
54 1 29 33
55 1 30 109
56 1 30 105
57 1 31 35
58 1 32 109
59 1 32 35
60 1 33 34
61 1 33 176
62 1 35 36
63 1 36 103
64 1 37 38
65 1 37 77
66 1 39 40
67 1 40 44
68 1 40 41
69 1 41 73
70 1 42 43
71 1 43 80
72 1 44 79
73 1 45 76
74 1 45 71
75 1 46 60
76 1 46 63
77 1 47 129
78 1 47 141
79 1 48 56
80 1 48 69
81 1 49 135
82 1 49 137
83 1 50 62
84 1 50 64
85 1 51 137
86 1 51 54
87 1 52 62
88 1 52 56
89 1 53 135
90 1 53 129
91 1 55 129
92 1 56 193
93 1 56 57
94 1 58 59
95 1 59 64
96 1 60 70
97 1 60 75
98 1 60 61
99 1 61 62
100 1 62 208
101 1 63 67
102 1 63 74
103 1 63 78
104 1 64 191
105 1 64 65
106 1 65 69
107 1 66 141
108 1 66 137
109 1 67 71
110 1 68 141
111 1 68 71
112 1 69 70
113 1 69 204
114 1 71 72
115 1 72 135
116 1 73 74
117 1 75 76
118 1 76 80
119 1 76 77
120 1 78 79
121 1 81 131
122 1 81 145
123 1 82 95
124 1 82 113
125 1 83 116
126 1 83 111
127 1 84 101
128 1 84 104
129 1 85 151
130 1 85 127
131 1 86 119
132 1 86 91
133 1 87 162
134 1 87 177
135 1 88 172
136 1 88 174
137 1 89 174
138 1 89 91
139 1 90 172
140 1 90 162
141 1 91 128
142 1 91 99
143 1 92 162
144 1 92 127
145 1 93 94
146 1 94 131
147 1 95 96
148 1 95 97
149 1 95 130
150 1 96 105
151 1 97 119
152 1 98 131
153 1 98 151
154 1 99 113
155 1 100 145
156 1 100 127
157 1 101 110
158 1 101 115
159 1 101 102
160 1 102 103
161 1 104 107
162 1 104 114
163 1 104 118
164 1 106 177
165 1 106 174
166 1 107 111
167 1 108 177
168 1 108 111
169 1 109 110
170 1 111 112
171 1 112 172
172 1 113 114
173 1 113 149
174 1 115 116
175 1 116 120
176 1 116 117
177 1 117 145
178 1 118 119
179 1 119 152
180 1 120 151
181 1 121 148
182 1 121 143
183 1 122 133
184 1 122 136
185 1 123 194
186 1 123 205
187 1 124 200
188 1 124 202
189 1 125 202
190 1 125 127
191 1 126 200
192 1 126 194
193 1 128 194
194 1 129 130
195 1 131 132
196 1 132 137
197 1 133 142
198 1 133 147
199 1 133 134
200 1 134 135
201 1 136 139
202 1 136 146
203 1 136 150
204 1 138 205
205 1 138 202
206 1 139 143
207 1 140 205
208 1 140 143
209 1 141 142
210 1 143 144
211 1 144 200
212 1 145 146
213 1 147 148
214 1 148 152
215 1 148 149
216 1 150 151
217 1 153 196
218 1 153 209
219 1 154 164
220 1 154 181
221 1 155 184
222 1 155 179
223 1 156 170
224 1 156 173
225 1 157 215
226 1 157 192
227 1 158 187
228 1 158 160
229 1 159 160
230 1 160 193
231 1 160 168
232 1 161 192
233 1 162 163
234 1 163 196
235 1 164 165
236 1 164 166
237 1 164 195
238 1 165 174
239 1 166 187
240 1 167 196
241 1 167 215
242 1 168 181
243 1 169 209
244 1 169 192
245 1 170 178
246 1 170 183
247 1 170 171
248 1 171 172
249 1 173 175
250 1 173 182
251 1 173 186
252 1 175 179
253 1 176 179
254 1 177 178
255 1 179 180
256 1 181 182
257 1 181 213
258 1 183 184
259 1 184 188
260 1 184 185
261 1 185 209
262 1 186 187
263 1 187 216
264 1 188 215
265 1 189 212
266 1 189 207
267 1 190 198
268 1 190 201
269 1 191 192
270 1 194 195
271 1 196 197
272 1 197 202
273 1 198 206
274 1 198 211
275 1 198 199
276 1 199 200
277 1 201 203
278 1 201 210
279 1 201 214
280 1 203 207
281 1 204 207
282 1 205 206
283 1 207 208
284 1 209 210
285 1 211 212
286 1 212 216
287 1 212 213
288 1 214 215
