ITEM: TIMESTEP
80000
ITEM: NUMBER OF ATOMS
272
ITEM: BOX BOUNDS pp pp pp
0.0000000000000000e+00 1.5423000000000000e+01
0.0000000000000000e+00 1.5404000000000000e+01
0.0000000000000000e+00 1.8437999999999999e+01
ITEM: ATOMS id mol type mass x y z c_pe_per_atom fx fy fz
1 1 4 65.38 15.2843 2.4547 3.31507 -4.89322 0.52391 0.435439 0.364098
2 2 4 65.38 4.45668 2.05935 10.8851 -4.76139 0.339469 1.43913 0.0235883
3 3 4 65.38 12.5674 5.68544 7.37097 -4.88022 -0.252614 0.11175 -0.867066
4 4 4 65.38 15.1608 12.7498 15.055 -4.74362 -0.0296274 -0.583882 0.511723
5 5 4 65.38 3.03455 9.32907 11.1168 -4.81783 -0.191857 0.701534 -0.745117
6 6 4 65.38 4.55619 5.65376 1.72013 -4.78924 0.684079 0.287233 -0.0162296
7 7 4 65.38 7.5357 5.30864 15.1141 -4.8074 -0.102937 -0.995421 0.215726
8 8 4 65.38 7.77429 2.71688 5.80781 -4.74314 0.161936 -0.361135 0.470254
9 9 4 65.38 2.9698 13.0097 1.34918 -4.46503 0.0387863 -0.206515 1.85922
10 10 4 65.38 7.72787 12.6946 12.1272 -4.92503 0.673697 0.734928 0.732852
11 11 4 65.38 0.303551 10.6916 6.14792 -4.8123 -0.365882 -0.577909 -0.189469
12 12 4 65.38 12.1869 2.01739 16.8011 -4.52561 -0.212202 -0.0462358 0.361069
13 13 4 65.38 14.9862 5.00881 12.5934 -4.88311 1.14446 0.129648 0.220836
14 14 4 65.38 7.81718 10.4531 3.62593 -4.90706 -0.493308 -0.432864 0.361749
15 15 4 65.38 10.6193 9.85088 16.77 -4.71417 -0.192327 0.579729 -0.18078
16 16 4 65.38 11.2959 13.4991 7.44288 -4.64696 0.594669 1.48491 0.0488511
17 17 1 12.0107 12.1569 0.859309 1.20301 -12.3272 -0.3803 -0.327311 -1.19826
18 17 1 12.0107 13.5894 2.47637 0.903788 -18.2194 -0.883769 -0.950429 2.02807
19 17 3 14.0067 13.6512 2.15416 2.27467 -0.565089 0.553659 -0.0473349 -3.37812
20 17 1 12.0107 12.789 1.07198 2.35346 -12.7707 1.28883 1.00799 2.7125
21 17 2 1.0079 14.276 3.03778 0.31787 -3.77143 0.389731 0.936685 0.227831
22 17 2 1.0079 12.7819 0.603995 3.32635 -3.79295 -0.579922 -0.290354 -0.196205
23 17 3 14.0067 12.6563 1.76499 0.27743 -0.0478642 -0.0448574 -0.711513 -0.265516
24 17 2 1.0079 11.4885 0.034094 0.987303 -3.81817 -0.0855361 0.486351 -0.330423
25 18 3 14.0067 8.96213 9.57333 2.23108 -0.322111 0.776863 1.30262 -1.85077
26 18 3 14.0067 10.079 9.66183 0.22819 -0.379728 -0.721601 0.229362 1.10843
27 18 2 1.0079 11.9272 8.85272 0.988698 -3.73621 -0.236125 0.144372 0.0323724
28 18 1 12.0107 10.26 9.1419 2.38617 -12.6013 -0.252955 -0.426752 1.58703
29 18 1 12.0107 10.9141 9.17092 1.21021 -12.4941 0.945631 -0.278876 -0.770508
30 18 2 1.0079 8.0869 10.3381 0.386418 -3.80926 -0.397336 0.143811 0.160114
31 18 1 12.0107 8.92938 9.92829 0.906241 -18.2443 0.324674 -0.522759 -0.0907002
32 18 2 1.0079 10.606 8.84096 3.37198 -3.82462 0.04466 0.00697058 -0.35626
33 19 2 1.0079 6.71088 1.42115 9.12494 -3.67675 0.460542 -0.333448 -0.618165
34 19 3 14.0067 6.28234 2.40239 7.22144 0.585645 0.346164 0.784103 -1.21188
35 19 1 12.0107 6.083 1.98158 8.45425 -19.4682 -0.992905 0.60095 1.45259
36 19 2 1.0079 5.01889 3.77243 6.03126 -4.11331 0.45527 -0.338739 -0.0188192
37 19 1 12.0107 5.20591 3.24217 6.95619 -12.3108 -0.177224 -0.00921006 -0.70397
38 19 3 14.0067 4.95739 2.50208 9.01311 0.176799 0.168195 -0.728971 -0.331918
39 19 2 1.0079 3.50345 3.82987 8.23071 -3.75123 -0.343954 0.117262 -0.154799
40 19 1 12.0107 4.38137 3.26067 8.01879 -12.699 0.237022 -0.129477 1.42834
41 20 3 14.0067 2.35053 9.19311 9.1794 0.651549 0.570392 -0.269686 1.16904
42 20 2 1.0079 4.05726 8.09128 8.54734 -3.71837 0.551364 -0.138783 0.201928
43 20 1 12.0107 3.23158 8.69956 8.26594 -12.7338 -1.22869 0.260451 -1.6562
44 20 1 12.0107 2.72003 9.00841 6.97173 -13.5197 3.40588 -1.84587 2.54962
45 20 2 1.0079 0.645437 10.4387 8.94052 -3.85525 -0.321172 -0.25769 -0.16541
46 20 1 12.0107 1.3455 9.75652 8.48589 -19.0724 1.77994 0.0523393 0.580734
47 20 2 1.0079 3.26277 8.78889 6.07121 -3.92087 -0.562345 0.223619 -0.44173
48 20 3 14.0067 1.62144 9.66582 7.18067 1.25611 -3.48124 2.0517 -0.895393
49 21 2 1.0079 4.7245 11.8198 11.3958 -3.71366 -0.515282 0.570912 -0.176036
50 21 2 1.0079 8.19757 9.58432 11.9112 -3.85223 0.0393326 0.0544495 -0.120722
51 21 3 14.0067 5.03077 9.72674 11.1226 0.750567 -1.66901 1.77257 0.68118
52 21 1 12.0107 5.38192 10.99 11.3875 -19.0124 1.05558 0.344976 0.0934514
53 21 3 14.0067 6.68697 11.1148 11.7187 -0.104897 -0.393969 -0.450061 -0.608714
54 21 1 12.0107 7.18512 9.82828 11.6418 -12.4421 0.242526 0.491385 0.900615
55 21 2 1.0079 6.059 7.95383 11.2469 -3.64238 0.462905 -0.0589008 0.155092
56 21 1 12.0107 6.13581 9.02213 11.3859 -13.4588 0.279514 -2.68224 -0.999352
57 22 2 1.0079 1.12397 6.87566 14.9924 -3.72685 0.870729 0.338024 -0.0631963
58 22 3 14.0067 1.15755 6.35807 12.9382 -0.421939 0.429834 1.57748 -0.839509
59 22 3 14.0067 2.73185 7.78659 12.1807 -0.248761 0.056014 -0.130895 1.92888
60 22 2 1.0079 3.33575 8.66895 14.0064 -3.84723 0.0869151 -0.0547501 0.448358
61 22 1 12.0107 1.66707 7.07612 14.0658 -11.591 0.684211 -0.415059 -2.55314
62 22 1 12.0107 2.71896 7.90866 13.5702 -12.018 -2.21261 -1.28362 -0.101593
63 22 2 1.0079 1.71805 6.76324 10.7636 -3.79902 -0.757236 -0.757351 0.694967
64 22 1 12.0107 1.79236 6.91109 11.8479 -18.992 -0.0343941 -0.638759 0.804495
65 23 1 12.0107 13.4487 5.56335 15.242 -12.0936 0.13178 0.432253 -1.21641
66 23 2 1.0079 14.5224 2.61731 14.6158 -3.71215 -0.201758 0.616856 0.404502
67 23 3 14.0067 13.2015 3.50026 16.0558 -0.167847 0.724716 1.28346 -0.673907
68 23 2 1.0079 13.4234 6.62693 15.0642 -3.97705 -0.0661575 -0.0902069 0.0147519
69 23 1 12.0107 14.087 3.53607 15.0422 -19.127 -0.294048 -1.6 -1.17277
70 23 2 1.0079 12.1587 5.13568 16.9485 -3.97523 -0.507065 0.171693 0.469273
71 23 1 12.0107 12.7889 4.81743 16.1591 -12.327 0.887794 -0.125933 0.202321
72 23 3 14.0067 14.2175 4.7237 14.4239 -0.0809328 -0.241509 -0.11997 1.32044
73 24 3 14.0067 0.671489 3.48429 11.691 0.230782 1.19258 0.601365 0.0537023
74 24 3 14.0067 2.58706 2.37871 11.3708 0.0780876 -0.295107 -1.56094 0.0297224
75 24 2 1.0079 1.64655 0.466017 10.8981 -3.82908 0.292006 -1.10181 -0.436435
76 24 2 1.0079 14.7773 1.98944 11.1063 -3.65247 0.396506 -0.549225 0.0647798
77 24 1 12.0107 2.02868 3.53287 11.6958 -19.399 -0.168608 0.365922 0.576086
78 24 1 12.0107 0.410011 2.19978 11.2662 -12.8772 -3.05157 0.941418 0.780925
79 24 1 12.0107 1.51398 1.46465 11.1749 -11.8355 1.73596 1.95423 -0.385744
80 24 2 1.0079 2.64553 4.36511 12.051 -3.91462 -0.586277 -0.227092 -0.335178
81 25 1 12.0107 6.32912 15.3258 11.5878 -19.6175 -0.457307 -1.24951 0.768816
82 25 1 12.0107 4.28615 15.0139 12.2864 -12.5835 1.29297 -0.295665 1.338
83 25 2 1.0079 7.17463 0.397767 11.1706 -3.67139 0.667568 0.195665 -0.489099
84 25 3 14.0067 5.10334 0.39391 11.5394 0.507531 -0.679042 0.965668 -0.968274
85 25 2 1.0079 3.27686 15.3427 12.493 -3.87634 0.118783 -0.378871 -0.0347819
86 25 2 1.0079 4.77016 13.3741 13.6162 -4.00464 0.631565 -0.440927 0.0139168
87 25 3 14.0067 6.38412 14.225 12.3684 0.457499 0.670694 -0.258182 0.365369
88 25 1 12.0107 5.12894 14.0874 12.8955 -12.5089 -1.62079 0.130897 -0.814608
89 26 2 1.0079 8.88571 10.3057 14.0544 -3.59308 -0.358997 -0.495205 0.337104
90 26 1 12.0107 9.11926 11.2464 14.5089 -20.9329 -0.189148 -2.49529 -0.26221
91 26 3 14.0067 9.92036 11.379 15.541 1.15808 1.79671 -0.634221 1.52688
92 26 1 12.0107 10.2646 12.7062 15.5845 -12.3212 -2.27286 0.598646 -0.426053
93 26 2 1.0079 9.42532 14.3704 14.3561 -3.9398 -0.108463 -0.391629 0.12079
94 26 2 1.0079 10.8944 13.1501 16.3218 -4.09202 0.217724 0.0276643 0.336083
95 26 3 14.0067 8.81164 12.3499 13.916 1.37385 -1.06903 2.6101 -1.18394
96 26 1 12.0107 9.45057 13.3213 14.6463 -12.4299 1.25226 0.921986 -0.266453
97 27 3 14.0067 14.2863 11.1182 15.8305 -0.190518 0.331849 -0.809615 0.976071
98 27 1 12.0107 14.7646 9.9936 16.5942 -11.6462 -0.408956 1.9873 -1.73036
99 27 3 14.0067 12.5377 9.82896 16.3585 -0.159571 1.23392 -0.137311 0.235376
100 27 2 1.0079 13.75 8.22059 17.3269 -3.82483 -0.457543 0.229128 -0.0344316
101 27 1 12.0107 13.7145 9.19015 16.8449 -11.889 -1.36867 0.632539 -0.0582167
102 27 2 1.0079 0.384386 9.92435 16.8435 -3.87013 0.0780367 -0.148441 -0.0500701
103 27 2 1.0079 12.3067 11.6737 15.2668 -3.9955 0.168006 -0.278901 0.0297129
104 27 1 12.0107 12.9595 10.9571 15.7504 -19.3261 1.23734 -0.875805 0.703463
105 28 1 12.0107 10.8453 7.69984 14.6663 -12.4582 -0.364494 1.06296 0.872923
106 28 2 1.0079 8.30146 8.12561 16.5631 -3.78996 -0.579713 -0.386821 -0.0432207
107 28 1 12.0107 8.97576 7.76555 15.8107 -19.4967 0.855629 -0.4747 -0.640519
108 28 2 1.0079 10.2469 5.922 13.5115 -3.93808 -0.172666 0.0663696 0.338245
109 28 3 14.0067 8.89011 6.67755 15.0235 0.166421 0.120504 0.282101 -0.288534
110 28 1 12.0107 10.0602 6.66928 14.2774 -12.5057 -0.306206 -0.867178 -0.306334
111 28 3 14.0067 10.1258 8.39661 15.618 0.555283 -0.063759 -0.350653 0.208128
112 28 2 1.0079 11.8448 8.05351 14.4679 -3.97249 -0.12156 -0.210274 -0.474779
113 29 2 1.0079 6.86324 3.77281 10.1982 -3.96826 0.391873 0.165199 -0.236136
114 29 3 14.0067 5.71275 3.44105 11.9053 0.352932 -1.0018 -0.518119 1.27833
115 29 1 12.0107 6.78997 3.93729 11.2531 -12.9687 -0.0520071 0.875694 0.828792
116 29 2 1.0079 8.34987 5.32713 11.8918 -3.84895 0.467415 0.186883 0.428886
117 29 3 14.0067 6.92338 4.60103 13.3733 0.161248 -0.042993 0.728745 0.34986
118 29 1 12.0107 7.52589 4.70066 12.1491 -12.5587 -0.740805 -0.745762 -0.96173
119 29 2 1.0079 5.26858 3.44532 14.038 -3.7358 -0.3509 0.253496 -0.0529181
120 29 1 12.0107 5.80928 3.87435 13.212 -18.5984 0.902545 -1.01965 -1.88281
121 30 3 14.0067 10.286 2.37064 16.5091 -0.518762 -1.61315 0.699736 -0.789526
122 30 2 1.0079 9.2364 0.544245 17.0617 -3.71939 0.0339145 0.798963 0.0279567
123 30 2 1.0079 10.3998 4.36897 15.7517 -3.89755 -0.466867 -0.466009 -0.184527
124 30 2 1.0079 7.00998 1.95724 16.5064 -3.80059 0.130902 0.327135 0.0284098
125 30 1 12.0107 9.16311 1.60228 16.7653 -12.4123 0.210643 -0.706941 0.331174
126 30 1 12.0107 9.75741 3.5067 15.9651 -18.6251 0.393974 0.266756 0.752841
127 30 3 14.0067 8.40871 3.55391 15.9236 -0.240863 0.812128 -0.657209 0.644102
128 30 1 12.0107 8.03158 2.31448 16.4812 -11.9167 0.111175 0.445821 -0.984002
129 31 2 1.0079 14.3256 15.1006 16.676 -3.8908 0.109567 0.0587877 0.23326
130 31 3 14.0067 12.6626 0.561257 15.6276 0.163345 2.00672 -2.00472 -0.371722
131 31 1 12.0107 13.7043 15.089 15.8034 -19.0506 -0.375906 1.29065 2.58731
132 31 2 1.0079 12.8152 13.8982 13.0366 -3.83848 0.0134873 -0.056875 0.0194669
133 31 1 12.0107 12.2015 0.171854 14.4332 -12.8775 -0.126643 -1.76938 -2.3575
134 31 2 1.0079 11.3722 0.626615 13.9281 -3.89976 -0.210502 0.312516 0.0557881
135 31 3 14.0067 13.8299 14.1721 14.8791 1.18921 1.96109 -0.895498 0.358342
136 31 1 12.0107 12.9482 14.4464 13.9543 -13.1653 -3.43051 2.46393 -1.0397
137 32 1 12.0107 1.77198 12.0211 11.5213 -12.2783 -0.948557 -0.290742 2.80385
138 32 2 1.0079 1.21873 13.8754 12.597 -3.79723 -0.48773 0.459055 0.0635384
139 32 2 1.0079 1.21623 9.92914 13.8545 -3.68529 -0.514891 -0.243816 0.4516
140 32 3 14.0067 0.800124 12.0262 13.578 0.274849 0.980231 -0.12476 -0.208981
141 32 1 12.0107 1.22675 12.8089 12.5592 -12.8448 0.579574 0.0880475 -2.59399
142 32 1 12.0107 1.21715 10.7952 13.233 -19.2514 0.137103 -0.535103 -0.378241
143 32 2 1.0079 2.05262 12.117 10.5123 -3.75262 0.412262 0.901947 -0.8494
144 32 3 14.0067 1.77909 10.7312 12.0151 0.372729 0.35203 0.160658 -0.0651872
145 33 1 12.0107 2.9911 13.9089 17.131 -12.3351 -1.63415 -0.229031 0.34188
146 33 2 1.0079 0.410804 12.2937 18.2028 -3.75937 -0.0629626 0.308594 -0.0849097
147 33 1 12.0107 1.08825 12.9614 17.6827 -19.5656 0.0665428 -0.415628 -0.465694
148 33 2 1.0079 2.17372 14.7459 15.2649 -3.88702 -0.182113 -0.0108123 -0.295688
149 33 3 14.0067 2.33393 13.1537 18.079 0.0162005 0.174651 -0.0238689 -0.739318
150 33 3 14.0067 0.849194 13.5403 16.5017 0.209272 1.05522 0.211967 -0.532725
151 33 1 12.0107 2.05495 14.1496 16.1488 -12.2009 0.294311 0.0497542 0.457279
152 33 2 1.0079 3.96759 14.2486 17.4244 -3.57965 0.202509 0.205564 -0.730757
153 34 3 14.0067 9.16617 1.34165 5.68211 -0.394984 -0.330779 -1.30118 1.66205
154 34 1 12.0107 9.87322 0.799535 4.63879 -12.5938 0.761846 0.441273 0.908625
155 34 3 14.0067 10.5645 15.2027 6.60247 -0.399307 0.265708 0.288421 -2.94005
156 34 1 12.0107 10.7827 15.3341 5.17387 -11.2862 0.0439995 -1.2564 0.847621
157 34 2 1.0079 11.4684 14.6671 4.63667 -4.04518 -0.222347 0.445757 0.526182
158 34 2 1.0079 9.79576 1.1923 3.63188 -3.87229 -0.0436555 -0.193502 0.217123
159 34 2 1.0079 9.12456 0.75608 7.7791 -3.76767 -0.172527 0.417011 0.247238
160 34 1 12.0107 9.58529 0.664933 6.81802 -18.9681 -0.205961 0.484488 -1.4692
161 35 1 12.0107 6.52953 4.34423 3.68267 -19.7991 -0.47143 -1.22156 -0.305683
162 35 1 12.0107 5.46657 2.88835 2.44653 -12.2192 0.679059 0.732058 -0.634488
163 35 2 1.0079 4.90203 2.54139 1.58888 -3.89945 0.0724375 0.0313863 0.235721
164 35 3 14.0067 5.81932 4.24319 2.56421 0.425205 -1.41516 -0.476127 -0.90625
165 35 2 1.0079 6.94387 5.25295 4.03423 -3.76065 0.214038 0.593673 0.338235
166 35 3 14.0067 6.68183 3.16092 4.28633 -0.00162998 0.324738 -1.08252 -1.13668
167 35 2 1.0079 6.07956 1.15495 3.71872 -3.86105 0.00549951 0.107932 -0.0894666
168 35 1 12.0107 6.08101 2.19543 3.43604 -11.9123 0.115444 1.31597 1.46262
169 36 3 14.0067 13.8387 5.72638 11.1761 0.232349 -0.853026 1.2723 1.85698
170 36 1 12.0107 12.5547 6.19951 11.452 -12.1586 0.0463588 -1.06479 0.0636501
171 36 3 14.0067 12.7772 5.99855 9.25265 -0.205782 0.705602 0.464469 0.394651
172 36 1 12.0107 11.8848 6.31198 10.2707 -12.2864 1.16382 -0.0823245 0.0492411
173 36 2 1.0079 14.9064 5.40013 9.46429 -3.73054 -0.552681 0.316072 -0.562756
174 36 2 1.0079 10.8827 6.65247 10.1469 -3.76937 -0.375957 -0.0196635 -0.519627
175 36 1 12.0107 13.9603 5.75376 9.86801 -19.5326 -0.418696 -1.20222 -0.185353
176 36 2 1.0079 12.1482 6.23891 12.4591 -3.92777 0.380954 0.133629 -0.247578
177 37 1 12.0107 4.1981 6.68186 17.2025 -12.5847 -0.53053 0.121992 0.00299186
178 37 2 1.0079 6.61945 4.91511 18.2808 -3.76836 0.58534 -0.104642 -0.193154
179 37 1 12.0107 6.00438 5.54223 17.6672 -19.3172 -1.87317 0.397918 1.84811
180 37 2 1.0079 4.85663 7.00431 15.114 -3.96611 -0.212746 0.072614 -0.143589
181 37 3 14.0067 6.1704 5.89351 16.4231 -0.173814 -1.58822 0.635078 -1.26528
182 37 1 12.0107 4.96519 6.60613 16.1022 -11.5631 2.31116 -0.57354 -0.533808
183 37 3 14.0067 4.82072 6.0015 18.2217 -0.327554 1.23624 -0.582012 -0.281021
184 37 2 1.0079 3.228 7.18311 17.206 -3.81046 0.366999 -0.387875 0.675869
185 38 3 14.0067 9.40484 13.1522 11.0093 0.659589 0.0915926 -1.08684 1.95392
186 38 1 12.0107 10.6472 12.6834 11.423 -12.0606 0.42498 -0.0942518 -1.09577
187 38 3 14.0067 10.8601 13.5413 9.35044 0.0673629 1.12501 -0.911925 1.05359
188 38 2 1.0079 12.5843 12.6757 10.3549 -3.86738 0.024476 0.0210622 -0.0821429
189 38 2 1.0079 8.81117 14.0374 9.24389 -3.54939 0.146669 0.00773216 -0.198093
190 38 1 12.0107 11.5314 12.8942 10.3998 -11.9606 -0.202449 0.385002 -0.136593
191 38 1 12.0107 9.63028 13.6141 9.81012 -20.7132 -2.09165 1.33122 -1.50579
192 38 2 1.0079 10.8302 12.1131 12.3026 -4.18616 -0.216912 0.0333808 0.614559
193 39 2 1.0079 4.76628 10.8244 2.73305 -3.89087 0.69201 0.688127 0.106064
194 39 1 12.0107 5.38054 11.6972 2.44166 -19.3646 -0.948574 -1.004 0.108243
195 39 2 1.0079 8.04143 13.4371 2.08443 -3.78564 -0.04633 -0.141412 -0.0792442
196 39 3 14.0067 6.68674 11.8213 2.69153 -0.455811 0.161854 1.1592 -0.85946
197 39 1 12.0107 7.04986 13.0195 2.01558 -11.7338 -0.840469 -0.825292 0.531392
198 39 3 14.0067 4.83483 12.6755 1.70094 -0.510784 1.98565 0.224089 -0.00478631
199 39 2 1.0079 5.76816 14.4485 0.860925 -3.67314 0.194603 -0.615373 0.290106
200 39 1 12.0107 5.92117 13.5115 1.41225 -12.1301 -0.365333 0.365103 0.181516
201 40 2 1.0079 2.88803 1.94844 4.151 -3.95338 -0.243238 0.0717117 0.171286
202 40 3 14.0067 1.29516 1.08707 3.03922 0.542529 -1.27891 -0.377387 -1.9691
203 40 1 12.0107 2.53563 1.15659 3.51136 -13.2474 1.97498 -0.52058 1.74595
204 40 3 14.0067 2.53907 14.7674 2.19025 -0.346377 -1.67972 1.5028 0.944793
205 40 2 1.0079 4.33068 15.3641 3.26768 -3.99903 0.137612 -0.651142 0.062392
206 40 1 12.0107 3.27278 0.0483363 3.13168 -12.3406 -0.48682 1.40557 -1.009
207 40 2 1.0079 0.570036 15.1298 1.46104 -3.89564 -0.263469 0.301849 0.466142
208 40 1 12.0107 1.31533 0.0413322 2.18246 -17.8748 1.62064 -1.48264 -0.244754
209 41 1 12.0107 15.3601 2.56229 6.42599 -12.789 -0.211329 0.887971 -0.159214
210 41 2 1.0079 12.9543 3.68604 4.6596 -3.7452 -0.499853 0.309929 -0.48435
211 41 1 12.0107 13.6406 3.49259 5.44408 -19.1251 2.21477 -1.50987 -1.69143
212 41 2 1.0079 14.9694 3.69015 8.31471 -3.96845 -0.179656 -0.363519 -0.838303
213 41 1 12.0107 14.7248 3.41916 7.27524 -12.0453 -0.0589167 1.09874 1.1792
214 41 3 14.0067 13.6615 4.0546 6.61371 0.60439 0.122803 -0.053349 2.11374
215 41 3 14.0067 14.7144 2.61629 5.2215 -0.0109354 -1.82005 0.844434 0.062122
216 41 2 1.0079 0.878912 2.06999 6.58121 -3.82391 -0.042677 -0.345541 -0.0877523
217 42 1 12.0107 2.08808 4.23569 2.21319 -19.6546 -0.701548 -0.813423 -0.103054
218 42 2 1.0079 0.152491 5.74316 4.20543 -3.98464 -0.206481 0.00975081 -0.10532
219 42 1 12.0107 1.92539 6.23142 3.05921 -11.7913 1.04696 -1.35067 -1.17748
220 42 3 14.0067 0.980361 4.19868 2.96787 0.477109 -0.165775 0.204947 -0.107933
221 42 1 12.0107 0.901283 5.48276 3.4755 -12.5934 -1.39943 -0.820254 1.12199
222 42 3 14.0067 2.71812 5.40395 2.22458 0.0279229 -0.670756 0.589938 0.469453
223 42 2 1.0079 2.12535 7.24154 3.27002 -4.02617 0.480987 0.746957 -0.0511716
224 42 2 1.0079 2.31681 3.35915 1.61628 -3.69752 0.541488 0.339366 0.0526631
225 43 1 12.0107 5.7082 8.30526 4.73565 -13.2915 -0.484792 -0.134552 1.04857
226 43 2 1.0079 6.82492 8.03822 1.76485 -3.97804 -0.71181 0.236452 0.407411
227 43 3 14.0067 5.20634 7.14579 2.87104 0.189491 0.881002 1.08778 0.98314
228 43 1 12.0107 4.90653 7.31177 4.21612 -12.4188 -0.0859074 -0.203623 -0.376798
229 43 2 1.0079 4.16848 6.64811 4.61651 -3.81119 -0.167984 0.101148 0.568961
230 43 1 12.0107 6.18633 8.03104 2.66053 -18.3179 1.1152 1.07166 -0.0157447
231 43 2 1.0079 5.87685 8.66059 5.75078 -3.64172 -0.59155 -0.189745 -0.197189
232 43 3 14.0067 6.49753 8.81075 3.77034 0.348226 0.432665 -0.938763 -2.13973
233 44 1 12.0107 9.6997 11.1024 7.4427 -12.6591 -0.0083061 0.126695 0.759839
234 44 2 1.0079 10.1672 12.5871 4.63722 -3.73096 -0.502849 -0.0976553 0.148321
235 44 3 14.0067 8.66195 11.1872 5.38957 -0.534928 2.05616 -0.140851 1.09464
236 44 1 12.0107 9.73627 12.0145 5.45557 -17.8919 0.599909 0.165026 1.09899
237 44 2 1.0079 9.94177 10.9045 8.49784 -3.99842 -0.128609 0.133428 -0.797113
238 44 1 12.0107 8.70618 10.6131 6.68321 -12.1168 -1.36936 -0.514947 -1.5723
239 44 3 14.0067 10.3638 12.0285 6.70136 -0.557223 -0.898586 -0.342439 -2.58793
240 44 2 1.0079 8.00842 9.85915 6.89101 -3.75449 -0.767311 -0.782526 0.472409
241 45 1 12.0107 9.444 6.11311 7.2023 -12.4858 1.78351 1.65152 0.909036
242 45 3 14.0067 8.94161 4.21512 6.32536 1.32217 -1.81261 -1.80779 -1.09803
243 45 1 12.0107 8.41915 5.30818 6.87979 -13.1388 -0.0655192 1.57089 0.665998
244 45 2 1.0079 10.949 3.70271 5.87249 -3.77444 -0.177946 -0.439967 0.0226378
245 45 3 14.0067 10.6315 5.49137 6.86138 0.94245 0.27618 1.18871 0.242349
246 45 2 1.0079 9.50972 7.10846 7.61197 -3.69227 -0.351611 -0.0326016 0.134303
247 45 1 12.0107 10.2362 4.38391 6.29838 -20.5049 1.33132 -1.6092 -0.476686
248 45 2 1.0079 7.40138 5.55115 7.03243 -3.84707 -0.942902 -0.384868 -0.0734079
249 46 3 14.0067 13.1131 7.3797 6.41439 0.807378 0.9945 -1.13683 0.983325
250 46 1 12.0107 13.0667 7.45796 5.07801 -13.1309 -0.419083 1.21395 -1.30074
251 46 3 14.0067 14.2777 9.19653 5.80747 0.560399 0.33251 -0.569863 0.631774
252 46 2 1.0079 12.4523 6.74978 4.56387 -3.73476 -0.0785233 -0.0580123 -0.594938
253 46 1 12.0107 13.9299 8.35549 6.79777 -19.3895 0.0871443 0.813938 1.38607
254 46 2 1.0079 13.8538 9.14308 3.75683 -3.7121 -0.116736 -0.456072 -0.166755
255 46 1 12.0107 13.7371 8.61076 4.68919 -12.6019 -0.118438 0.219826 -0.293673
256 46 2 1.0079 14.2709 8.44306 7.83218 -3.81482 -0.218402 0.197998 -0.422563
257 47 1 12.0107 1.17686 12.0219 3.56896 -18.5501 1.17953 0.473231 -1.84128
258 47 2 1.0079 2.75304 9.86239 1.87602 -3.87729 0.33533 -0.351511 0.0515484
259 47 1 12.0107 1.7105 9.9362 3.84242 -12.0928 0.751013 1.18322 -1.84267
260 47 2 1.0079 0.781987 13.0264 3.68061 -3.8658 0.00334815 -0.328863 0.306582
261 47 3 14.0067 1.9428 11.7043 2.44565 -0.271378 -1.31283 0.0683484 2.2303
262 47 1 12.0107 2.25976 10.3958 2.66507 -12.8484 -0.318857 -0.293932 -0.35961
263 47 3 14.0067 1.04655 11.0051 4.40235 0.136145 -0.0608652 -0.525439 -0.0204351
264 47 2 1.0079 1.82717 8.94621 4.19606 -4.13357 -0.355887 -0.357747 0.882333
265 48 3 14.0067 15.1335 12.3153 7.14518 0.967622 1.40772 -2.14725 -0.942093
266 48 2 1.0079 1.02625 13.826 6.58131 -3.73174 0.407519 0.518502 -0.0312967
267 48 2 1.0079 13.1364 11.4024 7.24949 -3.8262 0.98601 -0.34668 0.344143
268 48 3 14.0067 13.2369 13.4325 7.03593 0.266227 0.0878614 0.471093 -0.493107
269 48 2 1.0079 14.1821 15.3475 6.49283 -4.12093 -0.539051 0.246589 0.141616
270 48 1 12.0107 13.8364 12.2372 7.1851 -19.7098 -3.27374 0.897773 0.617877
271 48 1 12.0107 14.259 14.3104 6.74432 -12.2962 0.835041 -0.664717 0.172805
272 48 1 12.0107 0.011393 13.5872 6.79109 -12.789 -0.517696 0.743899 0.125934
ITEM: TIMESTEP
80500
ITEM: NUMBER OF ATOMS
272
ITEM: BOX BOUNDS pp pp pp
0.0000000000000000e+00 1.5423000000000000e+01
0.0000000000000000e+00 1.5404000000000000e+01
0.0000000000000000e+00 1.8437999999999999e+01
ITEM: ATOMS id mol type mass x y z c_pe_per_atom fx fy fz
1 1 4 65.38 15.0769 2.4955 3.13245 -4.88137 1.08341 0.346438 0.566908
2 2 4 65.38 4.60284 1.90224 10.6337 -4.7934 0.670484 0.401892 -0.0917793
3 3 4 65.38 12.8993 5.72019 7.61673 -4.73635 -1.21346 -1.25224 -0.85729
4 4 4 65.38 0.0119309 12.7691 14.7622 -4.92658 -0.641436 0.291997 1.361
5 5 4 65.38 3.13299 9.41086 11.235 -4.77085 0.254298 0.390729 -1.07737
6 6 4 65.38 4.3205 5.81566 1.87697 -4.87828 0.835222 -0.231957 -0.159546
7 7 4 65.38 7.31491 5.1274 15.1091 -4.92445 -0.0585231 -0.974529 -0.178075
8 8 4 65.38 7.87825 3.06727 5.67536 -4.83422 -0.63213 -1.45461 -0.370428
9 9 4 65.38 3.25651 13.2802 1.54914 -4.78457 -1.65388 -0.0407663 -0.0626487
10 10 4 65.38 7.78206 12.0481 12.3108 -4.81867 -0.510261 1.72884 -0.485323
11 11 4 65.38 0.449848 10.567 6.2141 -4.71899 -1.25661 0.520391 -1.38367
12 12 4 65.38 12.1156 2.09481 16.6483 -4.69048 -0.743982 -0.514726 -0.455941
13 13 4 65.38 15.3846 5.06098 12.7763 -4.8654 1.20238 -0.27012 0.578288
14 14 4 65.38 8.09776 10.589 3.37294 -4.91945 -1.15177 -0.411087 1.39664
15 15 4 65.38 10.5139 9.88921 16.844 -4.72997 0.0440367 0.897166 -0.404837
16 16 4 65.38 11.0086 13.7966 7.75771 -4.96502 -0.752943 -0.247491 -0.305192
17 17 1 12.0107 11.9288 1.11233 0.982753 -12.3491 0.725088 -0.303898 0.260574
18 17 1 12.0107 13.8261 2.08772 0.586944 -19.6852 -0.706044 -1.63648 -1.47801
19 17 3 14.0067 13.8951 1.72313 1.84848 0.0806243 -1.16289 0.953146 1.38091
20 17 1 12.0107 12.6425 1.21318 2.16394 -12.1393 -0.179567 -0.300843 -2.14048
21 17 2 1.0079 14.5915 2.48483 18.42 -3.68001 1.00377 0.578805 -0.110725
22 17 2 1.0079 12.3028 0.945736 3.11911 -3.988 0.0809357 -0.290655 1.19176
23 17 3 14.0067 12.7268 1.61081 18.4096 -0.125293 -0.536421 0.73679 1.051
24 17 2 1.0079 10.9923 0.60156 0.760147 -3.73866 0.220078 0.409781 0.163871
25 18 3 14.0067 9.56273 9.7818 2.40345 -0.0490744 -0.288231 0.557452 0.225303
26 18 3 14.0067 10.2813 9.49325 0.31377 -0.188271 -0.923929 1.25188 0.478293
27 18 2 1.0079 9.80654 7.36685 0.284856 -4.09693 0.493739 -0.00723806 -0.550961
28 18 1 12.0107 9.48098 8.43698 2.10469 -12.3634 -0.318305 0.596868 0.346312
29 18 1 12.0107 9.86666 8.29448 0.817674 -12.6963 0.261758 -0.702958 0.0643168
30 18 2 1.0079 10.1399 11.4688 1.20434 -3.65809 0.167013 0.0812267 0.0148061
31 18 1 12.0107 10.0191 10.4075 1.30748 -18.5526 0.274986 -2.13172 -0.7649
32 18 2 1.0079 9.0962 7.71195 2.8099 -3.98301 0.113015 0.222109 -0.0886693
33 19 2 1.0079 7.30079 1.82592 8.56779 -3.80591 -0.618332 0.128999 -0.153458
34 19 3 14.0067 6.25424 2.43221 6.77408 0.00859205 0.0784423 -0.34821 1.67463
35 19 1 12.0107 6.34314 2.07971 8.09771 -19.1967 0.794263 0.517251 -1.41227
36 19 2 1.0079 4.65615 2.97456 5.59561 -3.91437 -0.76607 0.0805591 -0.186191
37 19 1 12.0107 4.89796 2.65991 6.58827 -12.6237 1.91697 0.564149 -1.42684
38 19 3 14.0067 5.17819 2.1444 8.71052 0.38024 -1.21028 -0.241071 0.862717
39 19 2 1.0079 3.22022 2.7275 7.98714 -3.85156 -0.220891 -0.189733 0.149339
40 19 1 12.0107 4.24216 2.51816 7.74573 -12.2779 0.211552 -0.152593 1.03164
41 20 3 14.0067 2.28167 9.14462 9.41641 -0.127088 0.740934 -0.272935 -0.664838
42 20 2 1.0079 3.55876 7.59616 8.88991 -3.77702 0.664757 -0.620477 -0.412017
43 20 1 12.0107 2.99027 8.37407 8.44541 -11.9715 -1.15689 0.402104 2.24178
44 20 1 12.0107 2.63813 8.77794 7.21937 -12.2546 -1.2687 2.13649 -0.536655
45 20 2 1.0079 1.06814 10.9137 9.09645 -3.81763 -0.0555748 -0.644442 0.200015
46 20 1 12.0107 1.56211 10.014 8.7253 -18.5511 1.02358 0.457527 -2.41618
47 20 2 1.0079 2.88977 8.52874 6.21721 -3.82152 0.366705 -0.471007 -0.212059
48 20 3 14.0067 1.77753 9.89134 7.34554 -0.842267 0.48507 -1.00581 3.18736
49 21 2 1.0079 4.9776 11.4685 10.9249 -3.69516 -1.13828 1.17358 0.0691516
50 21 2 1.0079 8.28344 9.00661 11.5436 -3.84438 0.427356 0.350147 -0.101653
51 21 3 14.0067 5.13532 9.37066 10.8066 0.93911 -2.0845 -0.331392 -0.221289
52 21 1 12.0107 5.53498 10.6039 11.0708 -20.7053 0.308822 -0.910227 -0.152942
53 21 3 14.0067 6.79196 10.6616 11.3844 0.219512 3.83622 -1.37431 0.149873
54 21 1 12.0107 7.32519 9.34412 11.2082 -11.3959 -3.33197 -0.675094 0.673948
55 21 2 1.0079 6.01326 7.45016 10.7897 -3.69551 0.510319 0.421234 0.068812
56 21 1 12.0107 6.18589 8.51627 10.9308 -12.6697 1.54866 1.83056 0.235516
57 22 2 1.0079 2.28082 6.38383 15.2805 -3.72137 0.556297 0.232472 -0.122603
58 22 3 14.0067 1.42797 6.46838 13.4072 0.708957 -0.418876 0.249559 -2.9485
59 22 3 14.0067 2.77628 8.04632 12.5126 0.954809 -2.01197 -0.65907 -2.77958
60 22 2 1.0079 3.94445 8.39184 14.1228 -3.69954 0.493646 -0.139613 0.446753
61 22 1 12.0107 2.38398 6.80948 14.2927 -12.9604 -0.609772 -0.137044 0.732013
62 22 1 12.0107 3.18712 7.76541 13.7023 -14.0711 1.34412 0.124452 3.87159
63 22 2 1.0079 1.22947 7.23372 11.3191 -4.04139 0.0300229 -0.293837 1.04245
64 22 1 12.0107 1.72682 7.22279 12.3091 -18.1861 -0.785238 -0.0436144 -0.803398
65 23 1 12.0107 13.9037 5.61254 15.4333 -12.2743 1.0314 0.786418 -0.916497
66 23 2 1.0079 13.6531 2.73189 14.0628 -3.70214 0.42145 0.110779 0.0927341
67 23 3 14.0067 13.048 3.62306 15.8792 0.186109 0.252647 -0.209978 -0.938151
68 23 2 1.0079 14.1997 6.65715 15.3996 -3.80632 -0.0648325 -0.350799 0.173745
69 23 1 12.0107 13.7222 3.59668 14.7133 -19.5322 -0.763665 -1.19739 0.189381
70 23 2 1.0079 12.7833 5.1066 17.302 -3.73714 0.00414338 0.569152 -0.186459
71 23 1 12.0107 13.1699 4.90513 16.3128 -12.9794 -0.486567 -0.268318 1.4584
72 23 3 14.0067 14.2852 4.74944 14.4072 0.331917 -0.17359 0.602518 -0.232175
73 24 3 14.0067 1.06574 3.48715 11.908 0.695349 -0.107112 1.88541 0.443261
74 24 3 14.0067 2.82777 2.5368 10.9165 -0.0680973 -2.12329 -0.26355 -0.216448
75 24 2 1.0079 1.77356 0.754031 10.2907 -3.73665 0.153608 -0.109353 0.276261
76 24 2 1.0079 15.0735 1.89888 11.7052 -3.71658 1.12997 0.232786 -0.388304
77 24 1 12.0107 2.33528 3.6447 11.5018 -19.145 0.447456 -0.702973 0.645071
78 24 1 12.0107 0.680206 2.26164 11.4867 -13.0277 -1.3603 -0.87259 0.195315
79 24 1 12.0107 1.74289 1.66079 10.8758 -12.3206 0.233881 0.184776 -0.338391
80 24 2 1.0079 2.96323 4.47372 11.7786 -3.97701 -0.0984616 0.177962 -0.0917711
81 25 1 12.0107 6.13524 14.9733 11.2096 -19.7571 0.868531 -1.45443 0.774255
82 25 1 12.0107 4.34528 14.7108 12.3671 -12.2351 -0.725592 1.90984 -1.11826
83 25 2 1.0079 6.87624 0.016583 10.6025 -3.6182 0.638415 0.267 -0.610131
84 25 3 14.0067 4.96282 0.135648 11.4248 0.120208 -0.0641682 -0.154553 0.495718
85 25 2 1.0079 3.4282 15.143 12.7288 -3.78735 -0.298882 -0.800902 0.328844
86 25 2 1.0079 4.96434 12.8722 13.3634 -4.0839 0.362823 0.348222 -0.7357
87 25 3 14.0067 6.35461 13.84 11.9224 0.742286 -0.855138 -0.60926 -0.0450691
88 25 1 12.0107 5.14528 13.6519 12.6044 -12.1726 0.757453 -0.15559 1.03225
89 26 2 1.0079 8.24272 10.2866 14.591 -3.56602 -0.245964 -0.198796 -0.0268926
90 26 1 12.0107 8.54898 11.2701 14.9 -20.2834 0.171345 -1.69612 -1.49929
91 26 3 14.0067 9.4567 11.4226 15.83 0.716537 0.399323 0.807925 1.7094
92 26 1 12.0107 9.657 12.806 15.8589 -12.1018 -0.10793 -0.184091 0.333387
93 26 2 1.0079 8.87204 14.3939 14.4814 -3.90522 -0.0130889 -0.640762 0.421666
94 26 2 1.0079 10.1895 13.2894 16.6635 -3.96768 0.296064 -0.112673 -0.199675
95 26 3 14.0067 8.24719 12.3537 14.183 0.254988 -0.246239 0.0306871 1.0834
96 26 1 12.0107 8.91335 13.3659 14.8653 -12.2242 0.00474618 0.716729 -1.14268
97 27 3 14.0067 14.2431 11.52 16.0322 0.606744 0.579589 0.1973 -0.998803
98 27 1 12.0107 14.5465 10.5482 16.968 -12.4797 1.54825 1.08589 -0.574213
99 27 3 14.0067 12.3742 10.5583 16.7346 0.521661 -1.46124 0.714092 -1.1256
100 27 2 1.0079 13.3092 9.28498 18.1968 -3.73037 -0.361757 0.081505 -0.353609
101 27 1 12.0107 13.4028 10.0075 17.3907 -13.2721 0.0578872 -1.45426 1.55046
102 27 2 1.0079 0.135462 10.3627 17.3022 -3.82076 -0.189523 -0.0195935 -0.200425
103 27 2 1.0079 12.3449 12.1258 15.2332 -3.9359 0.0500164 -0.265042 0.217365
104 27 1 12.0107 12.9108 11.4746 15.8906 -18.8606 0.266138 -0.422601 0.652834
105 28 1 12.0107 10.4803 7.74933 14.7377 -12.7829 0.710611 -0.517879 0.355135
106 28 2 1.0079 8.14003 7.71778 16.9202 -3.746 0.0526417 0.299258 0.194722
107 28 1 12.0107 8.83631 7.58023 16.1149 -19.4446 0.00608592 0.0837794 0.0729351
108 28 2 1.0079 9.90528 5.97172 13.5582 -3.85675 -0.325116 0.189364 0.225576
109 28 3 14.0067 8.6436 6.62486 15.2131 0.651116 -0.407643 -1.15458 -0.469085
110 28 1 12.0107 9.70628 6.68283 14.3556 -12.6272 0.65378 0.513029 -0.406988
111 28 3 14.0067 9.96709 8.27675 15.8914 0.250456 -0.876038 -0.0636542 -0.0955544
112 28 2 1.0079 11.4591 8.06311 14.4219 -3.76579 -0.0173551 0.0724882 -0.338581