# 'MEP' generated by CHIC (2024-05-05 12:40:36.512531)

138 atoms
184 bonds
198 angles
0 dihedrals
0 impropers

2 atom types
1 bond types
4 angle types
0 dihedral types
0 improper types

# Average bond length information:
# type 1: 1.609 Å

# Average bond angle information:
# type 1: 109.492 degrees
# type 2: 179.007 degrees
# type 3: 166.402 degrees
# type 4: 146.246 degrees

0.0                  13.705  xlo xhi
0.0                  13.705  ylo yhi
0.0                  13.705  zlo zhi

Masses

1 15.9994 # O
2 28.0855 # Si
